LAMMPS data file via write_data, version 7 Jan 2022, timestep = 973

4326 atoms
6 atom types

0 89.1467868877 xlo xhi
0 77.2033821032 ylo yhi
0 100 zlo zhi
44.5733934564 0 0 xy xz yz

Masses

1 95.94
2 78.95999999999999
3 78.95999999999999
4 183.84
5 78.95999999999999
6 78.95999999999999

Atoms # atomic

1 2 87.22280031618527 0.09447262240732153 3.5591017574017068 -1 1 0
2 3 87.2397364529707 0.09471340815144877 6.869516099072637 -1 1 0
3 2 1.043811789307832 1.6189903058981163 3.5591017585116993 0 1 0
4 3 1.0355522509072626 1.604202784316386 6.869516100171643 0 1 0
5 2 128.67379770018752 72.4371764005279 3.616779806397784 -1 0 0
6 3 128.70970369395937 72.47676355268068 6.926900856457268 -1 0 0
7 2 131.63371816179668 73.96542510102415 3.574175832336509 -1 0 0
8 3 131.64956708167836 73.99401519733114 6.884463693868584 -1 0 0
9 1 130.76562778189253 75.68566937853495 5.2233765128527505 -1 0 0
10 2 45.45357710731631 75.48992479383 3.5591017553995927 0 0 0
11 3 45.444900510569944 75.50447152081037 6.869516097090532 0 0 0
12 1 2.9565197373373282e-06 1.8715985951244682e-06 5.208153185925636 0 1 0
13 2 48.4207836238239 77.01543160045064 3.5741758344415433 0 0 0
14 3 48.38809941273159 77.01486211471588 6.884463695959657 0 0 0
15 1 2.9549121087932027 1.5178477038722173 5.223324967317277 0 1 0
16 2 6.809178239589159 1.3435518081012228 3.616335663836 0 1 0
17 3 6.758451414696484 1.3287820880077956 6.926468324099641 0 1 0
18 2 125.59806607821857 67.56312363084608 3.7284413751306507 -1 0 0
19 3 125.63560045481744 67.61630922749278 7.039013494998117 -1 0 0
20 2 128.53008508568274 69.10445877694971 3.6663155784315475 -1 0 0
21 3 128.55903095291197 69.16028664437249 6.976549869152677 -1 0 0
22 1 127.66400564886044 70.83725207483025 5.305325758256181 -1 0 0
23 2 42.33235714352153 70.63469023416734 3.616335658360358 0 0 0
24 3 42.34492960662277 70.68600581064435 6.926468318624352 0 0 0
25 1 130.60648885324457 72.36548099660067 5.252445746440395 -1 0 0
26 2 45.29321552312515 72.15990536453425 3.588640221484706 0 0 0
27 3 45.2838897901466 72.20079458732293 6.898837916209008 0 0 0
28 1 44.410434885854144 73.8854346672786 5.223324963216248 0 0 0
29 2 48.259290105343446 73.68540317390278 3.5888360754233157 0 0 0
30 3 48.22658738389195 73.7122076798469 6.899031161019551 0 0 0
31 1 47.365053567864365 75.40352113731538 5.223376511971711 0 0 0
32 2 51.224246051532646 75.21618963821075 3.6167798074678617 0 0 0
33 3 51.17200957409535 75.2274915605168 6.926900857532766 0 0 0
34 1 50.31999051625059 76.92579697447421 5.252445749409688 0 0 0
35 2 54.18232048330914 76.75808967669366 3.6663155823102715 0 0 0
36 3 54.11949919823802 76.75524359548791 6.976549873062374 0 0 0
37 1 8.698583691373287 1.2559507594942871 5.304606886897609 0 1 0
38 2 12.555814515029269 1.113608582780479 3.726493734044245 0 1 0
39 3 12.493599528504065 1.1007481272271669 7.037141162249873 0 1 0
40 2 122.59408102948106 62.66200592554299 3.8312461302234078 -1 0 0
41 3 122.62106977151521 62.70013538847807 7.142533726246912 -1 0 0
42 2 125.49156776897834 64.22570453321967 3.780849926339052 -1 0 0
43 3 125.51760553968882 64.27652028262077 7.091881450699162 -1 0 0
44 1 124.61380199289513 65.95445697364443 5.421375565546353 -1 0 0
45 2 39.25990232715272 65.77292884504355 3.7264937287912763 0 0 0
46 3 39.27987234228249 65.83323883113354 7.037141156936831 0 0 0
47 1 127.52874828768293 67.50649320397358 5.360066887279654 -1 0 0
48 2 42.19383633632574 67.30752792983145 3.676777876618674 0 0 0
49 3 42.2013964889604 67.37088285598283 6.987083716062771 0 0 0
50 1 41.31178968454675 69.0422176382903 5.304606881121233 0 0 0
51 2 45.14389346218662 68.83513447207588 3.6418060530766545 0 0 0
52 3 45.13339867984101 68.89403977543975 6.951945714641054 0 0 0
53 1 44.25426718956002 70.56703130922352 5.266006625772568 0 0 0
54 2 48.10432009618686 70.36155582734392 3.6295070942663563 0 0 0
55 3 48.0729078950339 70.40984716122027 6.939609669051511 0 0 0
56 1 47.20504183188894 72.08741014837554 5.252341386343598 0 0 0
57 2 51.06832652800198 71.89226585572027 3.6428762942409607 0 0 0
58 3 51.017707944526265 71.92621933824077 6.952979193713064 0 0 0
59 1 50.159708965828294 73.60991213680482 5.266486299467076 0 0 0
60 2 54.02956720678995 73.4330102496139 3.6787461412994555 0 0 0
61 3 53.9666873731435 73.45183549943073 6.988973208080675 0 0 0
62 1 53.11471718655086 75.14164623113672 5.3053257600242905 0 0 0
63 2 56.983165377780374 74.9895543056914 3.7284413773462246 0 0 0
64 3 56.91833811202511 74.99546722794838 7.039013497257753 0 0 0
65 1 56.066867662501096 76.68988935803807 5.360066891201117 0 0 0
66 2 59.926704252583995 76.56603361568405 3.780849929357718 0 0 0
67 3 59.86967763860432 76.56317510948537 7.091881453775249 0 0 0
68 1 14.439711969799362 1.0564231408573972 5.418829321201191 0 1 0
69 2 18.28710098674939 0.9600880695578259 3.826789877745714 0 1 0
70 3 18.243600914778682 0.9526080716268378 7.138200766996105 0 1 0
71 2 119.65058650443505 57.72844938616129 3.8913637463199175 -1 0 0
72 3 119.66782994653268 57.745408593659576 7.202872667172346 -1 0 0
73 2 122.52385629324243 59.31494862868293 3.86258150137095 -1 0 0
74 3 122.54079092920152 59.34309084791895 7.174092375091762 -1 0 0
75 1 121.63000449170069 61.030354808942114 5.511552647113515 -1 0 0
76 2 36.26130642251543 60.88624942016641 3.826789874854065 0 0 0
77 3 36.276578592623416 60.92766158709605 7.138200764053989 0 0 0
78 1 124.5160756201591 62.60856259757179 5.468453630942578 -1 0 0
79 2 39.1606355778432 62.441968871987775 3.785344603373835 0 0 0
80 3 39.1715230591052 62.49620576843196 7.0965019258625235 0 0 0
81 1 38.26842955425712 64.17001851224818 5.418829316541889 0 0 0
82 2 42.078045043422 63.98412475718762 3.742988091014135 0 0 0
83 3 42.08028530279786 64.04719221238483 7.053781948887066 0 0 0
84 1 41.18306909206485 65.71534308480214 5.368801411173674 0 0 0
85 2 45.01364413775053 65.5170741323426 3.7075672583300556 0 0 0
86 3 45.00233874589497 65.582141999803 7.018037802830249 0 0 0
87 1 44.11317798095365 67.24789410725656 5.327588254869406 0 0 0
88 2 47.96395226081939 67.04645145234545 3.6875445510949194 0 0 0
89 3 47.935477561825245 67.1061208282445 6.997836022265103 0 0 0
90 1 47.05592674615841 68.77321335799671 5.304408440183861 0 0 0
91 2 50.92283692421829 68.57818099692248 3.688516432302533 0 0 0
92 3 50.87697442130184 68.62673765580368 6.9987693012244705 0 0 0
93 1 50.006845980320286 70.2979824055982 5.304991973119259 0 0 0
94 2 53.883405021892536 70.11826945187981 3.7106072365922658 0 0 0
95 3 53.82472638885424 70.15295807766238 7.020952197629758 0 0 0
96 1 52.9615850495377 71.82960988537369 5.329401190063014 0 0 0
97 2 56.839884041179495 71.67249358553985 3.7480124163492627 0 0 0
98 3 56.77688363080451 71.69382364392376 7.058603728991761 0 0 0
99 1 55.916491011038 73.37552851844613 5.371593349382396 0 0 0
100 2 59.78886468664972 73.24530169767787 3.7912608468440414 0 0 0
101 3 59.730835916678735 73.25624718030147 7.102213117572427 0 0 0
102 1 58.86844361157241 74.94148993260076 5.421375567606619 0 0 0
103 2 62.72965033896018 74.83858579682187 3.8312461312626533 0 0 0
104 3 62.68313488562807 74.84289399988648 7.1425337273336025 0 0 0
105 1 61.814936325003444 76.52980360188873 5.468453633313582 0 0 0
106 2 65.66339935312665 76.45129804207637 3.8625815022098062 0 0 0
107 3 65.63056015976329 76.451892755994 7.1740923759734025 0 0 0
108 1 20.18110257299813 0.9355695208750363 5.506319132058129 0 1 0
109 2 24.01833619079719 0.8768865304970107 3.884332464672144 0 1 0
110 3 23.997708822772513 0.875273159216829 7.1959683673042365 0 1 0
111 2 26.942404113609722 2.51811927003401 3.89851537909231 0 1 0
112 3 26.930802084251876 2.51473549787543 7.210226841032815 0 1 0
113 2 116.74385093147141 52.77002929854477 3.91726583238148 -1 0 0
114 3 116.75646080161886 52.773938757308464 7.228836503466307 -1 0 0
115 2 119.60439273486668 54.37239771244908 3.902400717245221 -1 0 0
116 3 119.61536666818427 54.38239615064478 7.214008544729528 -1 0 0
117 1 118.69858886201021 56.076450751585455 5.558272056681036 -1 0 0
118 2 33.32363417070424 55.96445490772404 3.884332464092915 0 0 0
119 3 33.33255063589098 55.98312541851461 7.1959683666888745 0 0 0
120 1 121.56543106641358 57.673416077064566 5.535275563997621 -1 0 0
121 2 36.19815928274401 57.5441599134129 3.861873162640622 0 0 0
122 3 36.20463970680814 57.57403248456444 7.173500653195651 0 0 0
123 1 35.29307194321789 59.25825520659935 5.506319129994536 0 0 0
124 2 39.08484739984568 59.11020076694774 3.834407984670587 0 0 0
125 3 39.08800716948687 59.15256745434038 7.14593439437957 0 0 0
126 1 38.17860554697623 60.82909877746396 5.47121177573192 0 0 0
127 2 41.98729989068823 60.66286551656983 3.803343422707085 0 0 0
128 3 41.985040210210826 60.71635331828235 7.114643979349636 0 0 0
129 1 41.07850937669499 62.38520035611469 5.432327727614715 0 0 0
130 2 44.907631205889146 62.20465121818584 3.773213551119422 0 0 0
131 3 44.89648918248256 62.264654558785125 7.084216545912914 0 0 0
132 1 43.99455135617835 63.92789094799929 5.395469548117781 0 0 0
133 2 47.84494930007534 63.74009909469504 3.7510345432918686 0 0 0
134 3 47.82123527702704 63.79987597886494 7.0617845817485385 0 0 0
135 1 46.92594757076209 65.46101687139233 5.368750921065235 0 0 0
136 2 50.795000646915994 65.2749691665138 3.743540096294783 0 0 0
137 3 50.756913489713156 65.32793131675089 7.054163609210128 0 0 0
138 1 49.86946564149388 66.99053070561939 5.359471537103349 0 0 0
139 2 53.75129367593447 66.81549624812266 3.753805513611616 0 0 0
140 3 53.70085745931735 66.85732994741662 7.064429960029363 0 0 0
141 1 52.82059593511593 68.52380657154573 5.370783739221619 0 0 0
142 2 56.70728399346424 68.3677072225106 3.779297888464083 0 0 0
143 3 56.65057953550844 68.39743240491879 7.090044711922169 0 0 0
144 1 55.77492242454717 70.06853926297447 5.399873877900074 0 0 0
145 2 59.65837156745007 69.9364673471766 3.8128760186037987 0 0 0
146 3 59.60339939036311 69.95599754222697 7.123839861314591 0 0 0
147 1 58.72877277840817 71.63107916058888 5.438937659085648 0 0 0
148 2 62.60272192964524 71.52448802951012 3.8461334310252067 0 0 0
149 3 62.55620480911175 71.53713865607212 7.157331313427771 0 0 0
150 1 61.67931649715123 73.21482086837067 5.47853058787735 0 0 0
151 2 65.54079323019286 73.13181506388749 3.8729946013060443 0 0 0
152 3 65.50599283516304 73.14055626347633 7.184377151719847 0 0 0
153 1 64.62473992514424 74.81949658300402 5.511552647567279 0 0 0
154 2 68.4739828934278 74.7562230349314 3.891363745602782 0 0 0
155 3 68.45067406891764 74.76267668912064 7.202872666495224 0 0 0
156 1 67.56422085770821 76.44204372437918 5.535275564205566 0 0 0
157 2 71.40350578364313 76.39424389572144 3.902400716437524 0 0 0
158 3 71.38935991638299 76.3987483805909 7.214008543960464 0 0 0
159 1 25.92431567976345 0.8748366062328627 5.550683051946405 0 1 0
160 2 29.756595497825764 0.8388104337431229 3.9087348350701054 0 1 0
161 3 29.74874775145571 0.8410613737370689 7.220427379461415 0 1 0
162 1 28.852177024571567 2.5205562044268666 5.560487586912483 0 1 0
163 2 32.68022969416753 2.4934159870823756 3.9129351134413537 0 1 0
164 3 32.67625765591571 2.493083987842718 7.224690698843332 0 1 0
165 2 113.8569464670112 47.79815535542868 3.926654666032737 -1 0 0
166 3 113.8675614207798 47.79644415884938 7.238285225218114 -1 0 0
167 2 116.71130379682259 49.4090030472151 3.9179786308845452 -1 0 0
168 3 116.71987285299232 49.41034810319676 7.2296452298306475 -1 0 0
169 1 115.79850573406476 51.10670997010396 5.577015257828891 -1 0 0
170 2 30.421529647831388 51.01401462266003 3.9087348357100917 0 0 0
171 3 30.427402893528313 51.01968550035601 7.2204273800675 0 0 0
172 1 118.6553527552706 52.71454735250253 5.564860539500651 -1 0 0
173 2 33.282949453506006 52.611521434352184 3.898515378600522 0 0 0
174 3 33.28582003696052 52.623260972795435 7.210226840512162 0 0 0
175 1 32.368869139657505 54.31485321369498 5.5506830518719035 0 0 0
176 2 36.151054311784904 54.19964922964963 3.8863016071790533 0 0 0
177 3 36.151067088477085 54.219536446051364 7.198022096635522 0 0 0
178 1 35.235145106687135 55.90584681424861 5.533402561889494 0 0 0
179 2 39.028780671757076 55.77664664771786 3.8707395778296023 0 0 0
180 3 39.02621924277032 55.80646705056839 7.182441421019284 0 0 0
181 1 38.11052409685104 57.48566799342073 5.5118275093916225 0 0 0
182 2 41.9195364158643 57.3415281378986 3.8511744722348045 0 0 0
183 3 41.9140362049485 57.38162882746416 7.162786969239904 0 0 0
184 1 40.99836437885549 59.05283623502541 5.485793247165045 0 0 0
185 2 44.826315247937956 58.89493983238428 3.8291475775436887 0 0 0
186 3 44.816092417211955 58.94312473286651 7.140583764167899 0 0 0
187 1 43.901355313041016 60.607122565273706 5.4576657829475534 0 0 0
188 2 47.75023988170094 60.43968361431722 3.8091643210337702 0 0 0
189 3 47.73226589398628 60.49110944477187 7.120390041979248 0 0 0
190 1 46.820431296143994 62.15043633347108 5.432929279720219 0 0 0
191 2 50.689313333369206 61.98054013298296 3.797451132647468 0 0 0
192 3 50.66083187630814 62.0291357390417 7.10851299787348 0 0 0
193 1 49.75405621708096 63.68727203338382 5.4185752950034995 0 0 0
194 2 53.63846889384947 63.523480906927944 3.798919954458689 0 0 0
195 3 53.5991573780059 63.56420813535508 7.1099032229235695 0 0 0
196 1 52.6985686396224 65.2242494000501 5.41983768931403 0 0 0
197 2 56.59114199252614 65.07476568383153 3.814196774426955 0 0 0
198 3 56.54434049782718 65.10541525514837 7.12518390419255 0 0 0
199 1 55.64930860144762 66.76909915092759 5.437209286458393 0 0 0
200 2 59.541673754104345 66.63979005698978 3.8389526829175478 0 0 0
201 3 59.4934547178099 66.66129434051805 7.1500129541756525 0 0 0
202 1 58.60189505859988 68.32878164624721 5.4658079789706715 0 0 0
203 2 62.4869104993246 68.22212346543745 3.8661148533307212 0 0 0
204 3 62.443534068891125 68.23739759163573 7.177287831141463 0 0 0
205 1 61.55294586496888 69.9077796269867 5.497724423780397 0 0 0
206 2 65.42634391331967 69.82294919063034 3.889302195957655 0 0 0
207 3 65.391833324426 69.8351036433703 7.200584657594194 0 0 0
208 1 64.50028411651259 71.50720382215731 5.525713508690169 0 0 0
209 2 68.36106615372985 71.44112627767393 3.9052161842577795 0 0 0
210 3 68.33641069493154 71.45211392944498 7.216592620579715 0 0 0
211 1 67.44290995498768 73.12508962058973 5.545938712763477 0 0 0
212 2 71.29246336459016 73.0739530680388 3.9138605219492186 0 0 0
213 3 71.27639478167485 73.08421959916339 7.225331338200407 0 0 0
214 1 70.38065449940493 74.75776821029893 5.558272055531617 0 0 0
215 2 74.22146843700013 74.71812623279342 3.917265830599191 0 0 0
216 3 74.21177781191997 74.72709197050699 7.228836501725104 0 0 0
217 1 73.3137663009876 76.4012763445279 5.564860538389387 0 0 0
218 2 77.14847612071448 76.3704527144068 3.9179786293790624 0 0 0
219 3 77.1430267404026 76.37720120573454 7.2296452283630614 0 0 0
220 1 31.669251538082715 0.8487874656856349 5.568405071646109 0 1 0
221 2 35.50017595132047 0.8248100726122897 3.9181022169639417 0 1 0
222 3 35.497351355970245 0.8286179920081923 7.229843752804328 0 1 0
223 1 34.59431928899449 2.5043932894914005 5.571070801024682 0 1 0
224 2 38.423351923993636 2.4857358416244324 3.918967693215737 0 1 0
225 3 38.422114351431254 2.486303115447755 7.230751668418954 0 1 0
226 2 110.98017073722693 42.82099295054525 3.929183092622368 -1 0 0
227 3 110.98924238032575 42.817095928154714 7.240850264796504 -1 0 0
228 2 113.8317195874067 44.43532996947406 3.9235938522346805 -1 0 0
229 3 113.83890617099252 44.43342493147097 7.235305385568294 -1 0 0
230 1 112.91486116945545 46.13001007270416 5.583471764367334 -1 0 0
231 2 27.537614751092647 46.04692822188308 3.918102217970619 0 0 0
232 3 27.542324804802636 46.047470433195016 7.22984375378009 0 0 0
233 1 115.76711295153692 47.74342383981974 5.5760300672607315 -1 0 0
234 2 30.39264299092556 47.65477036059443 3.9129351137096755 0 0 0
235 3 30.394341491440567 47.658376246036276 7.224690699085754 0 0 0
236 1 29.47384199081657 49.35261738722661 5.568405072455813 0 0 0
237 2 33.25142122016129 49.25756379605194 3.908038007991104 0 0 0
238 3 33.249913917991606 49.265167826574945 7.219794328276617 0 0 0
239 1 32.33017344521533 50.956391110960055 5.560487586751756 0 0 0
240 2 36.115685108145705 50.85369098002409 3.902749863632166 0 0 0
241 3 36.111359895571944 50.86660881601549 7.214499817227804 0 0 0
242 1 35.191373694980875 52.55328739492805 5.551600517008556 0 0 0
243 2 38.98768789678668 52.441301439338936 3.8957096730087515 0 0 0
244 3 38.98141358823078 52.46102922621408 7.207454416218624 0 0 0
245 1 38.06005440404245 54.14159356067968 5.54043213195896 0 0 0
246 2 41.8702718491809 54.01868198718518 3.8853963426996168 0 0 0
247 3 41.86278430142223 54.046235440189896 7.197120237116235 0 0 0
248 1 40.939232915058554 55.71952316935187 5.525631303336158 0 0 0
249 2 44.766501315250636 55.58502895228537 3.8713957074123386 0 0 0
250 3 44.75745317719259 55.619918711954114 7.183050365269252 0 0 0
251 1 43.83183027885071 57.28582867907711 5.507146029646002 0 0 0
252 2 47.67857658372975 57.1413443202684 3.855753204884892 0 0 0
253 3 47.666014975261646 57.18081877511644 7.167286893223139 0 0 0
254 1 46.73974240107892 58.84078806257997 5.487612738545203 0 0 0
255 2 50.60643577963158 58.69083093113974 3.8431171592992612 0 0 0
256 3 50.5874605337687 58.73025904119663 7.154512849907846 0 0 0
257 1 49.6629445424798 60.3870635778323 5.472333312157895 0 0 0
258 2 53.54688180074178 60.238601498615296 3.8388641483885393 0 0 0
259 3 53.519483994558726 60.27311859390175 7.150149537781358 0 0 0
260 1 52.59906751592617 61.929922025492424 5.467142979549456 0 0 0
261 2 56.494207939412554 61.79077314669553 3.846009973897545 0 0 0
262 3 56.45912601508906 61.817351747738414 7.157228810065824 0 0 0
263 1 55.54397270313961 63.47653718039013 5.475139654104657 0 0 0
264 2 59.44225374415781 63.35320246224172 3.863163884759725 0 0 0
265 3 59.4032498871722 63.371766733890745 7.174355853359391 0 0 0
266 1 58.49293798925035 65.03426513406819 5.494586336466369 0 0 0
267 2 62.3866030438488 64.93031490067195 3.8851820335680824 0 0 0
268 3 62.3488714272924 64.94324667852304 7.19638143162843 0 0 0
269 1 61.441942204172776 66.60866239092267 5.519695858004426 0 0 0
270 2 65.32552581125643 66.5244161792431 3.9059288278896376 0 0 0
271 3 65.29337862651474 66.5349581435555 7.217158290617114 0 0 0
272 1 64.38828120848734 68.2022677030023 5.543631260371656 0 0 0
273 2 68.25947404595087 68.13552529577352 3.921074590502221 0 0 0
274 3 68.23495725962727 68.14617337033535 7.232347819838688 0 0 0
275 1 67.33067103461595 69.8144549749766 5.561609195094751 0 0 0
276 2 71.18987377549188 69.76184647099957 3.9292388461129946 0 0 0
277 3 71.17281457651833 69.77356845166919 7.240575161986437 0 0 0
278 1 70.26892284650967 71.44239558714818 5.572168781744543 0 0 0
279 2 74.11806637839581 71.4006171947045 3.93144571527979 0 0 0
280 3 74.10704031258757 71.41299774226026 7.2428702714059305 0 0 0
281 1 73.20340304246365 73.0824317421495 5.5765112261926495 0 0 0
282 2 77.044882927064 73.0488763919819 3.929846212756972 0 0 0
283 3 77.03817529790848 73.06074548503578 7.241375968044792 0 0 0
284 1 76.13461782881107 74.73109294126907 5.577015255886292 0 0 0
285 2 79.97068980749488 74.70393060158545 3.926654663905137 0 0 0
286 3 79.96686427060172 74.71397901868579 7.238285223130648 0 0 0
287 1 79.06300544900569 76.38554906026202 5.576030065695957 0 0 0
288 2 82.89559546025899 76.36349617697527 3.923593850623002 0 0 0
289 3 82.89365197996321 76.37067245890253 7.235305383991304 0 0 0
290 1 37.415513736031635 0.8402336882578365 5.575279722487303 0 1 0
291 2 41.24623219567583 0.8222869200322726 3.921748311065112 0 1 0
292 3 41.245561899079156 0.8259994664923197 7.233511140578039 0 1 0
293 1 40.33920772356504 2.500235111999598 5.575735697333286 0 1 0
294 2 44.16940754329071 2.485441306814937 3.9216074223333672 0 1 0
295 3 44.169708028027515 2.4856121936593505 7.23339006723535 0 1 0
296 2 108.10736193441676 37.84335574603067 3.9281616652944114 -1 0 0
297 3 108.11492409252052 37.83834704236809 7.239831462260893 -1 0 0
298 2 110.95825008608696 39.45786843790764 3.92486798694066 -1 0 0
299 3 110.96390525252251 39.45464995200953 7.236592663257051 -1 0 0
300 1 110.03899071317397 41.15120751033558 5.584638080849395 -1 0 0
301 2 24.66240151356154 41.07195911924661 3.921748312023026 0 0 0
302 3 24.665951822425907 41.07068333945371 7.233511141508924 0 0 0
303 1 112.88948051560992 42.76673515585708 5.579888067646445 -1 0 0
304 2 27.514430673770185 42.684920685404315 3.9189676936178004 0 0 0
305 3 27.515540734615882 42.685708817370944 7.23075166879895 0 0 0
306 1 26.593303101757094 44.38048523564266 5.575279723484402 0 0 0
307 2 30.368636558046003 44.29592986620399 3.916784641510915 0 0 0
308 3 30.36696935075352 44.29894607020309 7.228570422943322 0 0 0
309 1 29.44510481641283 45.991631495097714 5.571070801362828 0 0 0
310 2 33.22619704020472 45.903932395383976 3.915324400022552 0 0 0
311 3 33.22168169758885 45.90950083410624 7.227092760370378 0 0 0
312 1 32.29941493906865 47.59918556659112 5.567405318471534 0 0 0
313 2 36.08847911177779 47.507530490642374 3.9142444332198787 0 0 0
314 3 36.08155770984395 47.516278273319124 7.225988798671137 0 0 0
315 1 35.15790253526723 49.20191390775825 5.563965832463233 0 0 0
316 2 38.95720188629624 49.10491971164398 3.9124866786253008 0 0 0
317 3 38.94890701303588 49.11781299303941 7.224213171279523 0 0 0
318 1 38.02269597607772 50.79825402093784 5.559704793639943 0 0 0
319 2 41.83460488102965 50.69407086975453 3.908427446996759 0 0 0
320 3 41.826182289590264 50.71213288427884 7.220146856205194 0 0 0
321 1 40.896331822299985 52.386337348502586 5.553015269500504 0 0 0
322 2 44.723388978589696 52.27327508568213 3.9007210454383814 0 0 0
323 3 44.715449946162266 52.29688260802544 7.2124261766050415 0 0 0
324 1 43.7815122811081 53.9643495562294 5.542616444204582 0 0 0
325 2 47.6260879877166 53.84205948092839 3.8896370116298975 0 0 0
326 3 47.61776699433995 53.870065598826386 7.201296209253619 0 0 0
327 1 46.68050034040798 55.531391295174025 5.528994051383306 0 0 0
328 2 50.54388036302129 55.40194059716839 3.877988443210182 0 0 0
329 3 50.53274639845824 55.43136196695956 7.189565691654861 0 0 0
330 1 49.59424288958368 57.08843246540944 5.51532935643231 0 0 0
331 2 53.47536114324737 56.95668535938374 3.870512586870227 0 0 0
332 3 53.45861384154123 56.98348626366945 7.1819961999035815 0 0 0
333 1 52.52167750310877 58.639039077181 5.506771648928364 0 0 0
334 2 56.41622810418585 58.51180146907664 3.871503883000983 0 0 0
335 3 56.392596116153896 58.532635373529594 7.182897354290992 0 0 0
336 1 55.45961049246673 60.18929070857756 5.507856744647953 0 0 0
337 2 59.360557315466664 60.073293398342095 3.8821158273846876 0 0 0
338 3 59.331514323385434 60.08711648980939 7.193431119555653 0 0 0
339 1 58.403543885598815 61.74642278340056 5.519634251145015 0 0 0
340 2 62.303028946187915 61.64633278654102 3.8995171604978665 0 0 0
341 3 62.272273401923556 61.65469926055169 7.210773502537246 0 0 0
342 1 61.349008575328526 63.316845759406974 5.538854300842513 0 0 0
343 2 65.24061189455591 63.23427430314327 3.9184890829671257 0 0 0
344 3 65.21224830116286 63.24026505367082 7.229708367011144 0 0 0
345 1 64.29268997105301 64.90449664454123 5.559736279554927 0 0 0
346 2 68.17278339585381 64.83830951792838 3.9341334241669927 0 0 0
347 3 68.14957693826358 64.84490116670797 7.245343426734998 0 0 0
348 1 67.23281040399037 66.51024313167748 5.576968770808618 0 0 0
349 2 71.10065360846919 66.45762385077614 3.9437305642246985 0 0 0
350 3 71.08345914974781 66.46656294708214 7.254963585745379 0 0 0
351 1 70.16899703531178 68.13236158422592 5.587722471495038 0 0 0
352 2 74.02582639902748 68.09010256571035 3.947009795411148 0 0 0
353 3 74.01404003788195 68.10162260449232 7.258301520266426 0 0 0
354 1 73.10173267112681 69.76774351909872 5.591910236941603 0 0 0
355 2 76.9496344502884 69.7331101549076 3.945323063800363 0 0 0
356 3 76.94203287307188 69.74632150208235 7.2567034122194425 0 0 0
357 1 76.03178233739308 71.41302950189716 5.591175846450805 0 0 0
358 2 79.87291837345492 71.38406932834148 3.940620910124979 0 0 0
359 3 79.8682826182444 71.39754937752691 7.252103825052089 0 0 0
360 1 78.9598342598155 73.06527633838597 5.5877093218646054 0 0 0
361 2 82.79611737726034 73.04071689800263 3.9347568548463587 0 0 0
362 3 82.79351916651319 73.05298147451163 7.246339855365711 0 0 0
363 1 81.88638864832114 74.7221334431117 5.583471762243611 0 0 0
364 2 85.71942675332356 74.70115094244112 3.9291830905275424 0 0 0
365 3 85.71826585230899 74.710955726135 7.2408502627387055 0 0 0
366 1 84.81176049337172 76.38179061125409 5.579888066089044 0 0 0
367 2 88.64293834341781 76.36372935875042 3.9248679854697417 0 0 0
368 3 88.64289805086437 76.37023611843767 7.236592661817172 0 0 0
369 1 43.1627741372756 0.8394082996609298 5.5778007403009005 0 1 0
370 2 46.99331398055537 0.8235764368259364 3.922297871597046 0 1 0
371 3 46.99429297318332 0.8264345947290043 7.234051323171616 0 1 0
372 1 46.0863840109997 2.5004922001041963 5.577510383585912 0 1 0
373 2 49.917379754776604 2.4859857588695613 3.921502239582926 0 1 0
374 3 49.919497436905075 2.4853537127909826 7.233255890777826 0 1 0
375 2 105.23356900844362 32.868925961939716 3.92431534789817 -1 0 0
376 3 105.23988751921894 32.862448511572005 7.23594707889938 -1 0 0
377 2 108.08565823029824 34.48063363070061 3.9231756737762553 -1 0 0
378 3 108.08972461779868 34.476319221509364 7.234879390621607 -1 0 0
379 1 107.16535384613513 36.17346067507677 5.582679246776331 -1 0 0
380 2 21.789977374669196 36.09419553802281 3.922297872366524 0 0 0
381 3 21.791963116713 36.091918626120965 7.2340513239172495 0 0 0
382 1 110.01589913452162 37.78837742177405 5.580137761950254 -1 0 0
383 2 24.641147788707713 37.70883781530736 3.9216074226048727 0 0 0
384 3 24.641145539635108 37.708492144016034 7.233390067488073 0 0 0
385 1 23.718958092577736 39.40362442053221 5.5778007411787165 0 0 0
386 2 27.493389624714773 39.323840179455 3.9211678348650367 0 0 0
387 3 27.49133695328565 39.32529845054923 7.232959505319989 0 0 0
388 1 26.56905951064924 41.018491257684445 5.57573569768741 0 0 0
389 2 30.347699095037477 40.938427412916624 3.9211866239426243 0 0 0
390 3 30.34347156487793 40.94155366987838 7.232965700931512 0 0 0
391 1 29.42041035786643 42.632218545679095 5.574170204502378 0 0 0
392 2 33.205098345307654 42.551648531078584 3.921852725695879 0 0 0
393 3 33.19870449675932 42.55637931941994 7.233603021467351 0 0 0
394 1 32.27413991399623 44.24392169497223 5.573327400939901 0 0 0
395 2 36.06670463835113 44.16222491025555 3.92305998423405 0 0 0
396 3 36.0585377967839 44.16871867562448 7.234772165069622 0 0 0
397 1 35.13162924418979 45.85249099565001 5.573126830612138 0 0 0
398 2 38.93385599768278 45.76844891939476 3.924116307838273 0 0 0
399 3 38.924852349574515 45.77719582369505 7.235795734398313 0 0 0
400 1 37.994576035958744 47.456461361863525 5.572884545055053 0 0 0
401 2 41.808289069280185 47.36821111537535 3.9236657636673757 0 0 0
402 3 41.79976666762759 47.37998939400109 7.235331198258951 0 0 0
403 1 40.86505115977667 49.05397684373848 5.571203366885702 0 0 0
404 2 44.692219073363376 48.9593411368372 3.920135884017338 0 0 0
405 3 44.685259251376685 48.974819351120814 7.231805749419704 0 0 0
406 1 43.74538500362543 50.64296287797313 5.566438239546925 0 0 0
407 2 47.588060633471926 50.540359605459514 3.9127842920143543 0 0 0
408 3 47.58264370373736 50.55937329063495 7.224455206142277 0 0 0
409 1 46.63780814147136 52.22177102708085 5.557827238578405 0 0 0
410 2 50.49760287878797 52.11133315990547 3.9028728851957792 0 0 0
411 3 50.49204853358834 52.132269228333875 7.214518464865895 0 0 0
412 1 49.54377328052587 53.79004330654213 5.546734429869275 0 0 0
413 2 53.42079148406944 53.67454045430804 3.893965854424429 0 0 0
414 3 53.412259680579986 53.69444661892328 7.205557376086939 0 0 0
415 1 52.46320017563459 55.349698751149866 5.536972488169834 0 0 0
416 2 56.35488569709764 55.234432199842196 3.890554036605467 0 0 0
417 3 56.340918890516285 55.250142557970776 7.202071012402139 0 0 0
418 1 55.39400713529519 56.90533447067231 5.533302881406795 0 0 0
419 2 59.29480620131357 56.79675940616974 3.895551259867768 0 0 0
420 3 59.27498140759737 56.80647442762541 7.206980471703532 0 0 0
421 1 58.33234075288171 58.4635392366148 5.538754296006896 0 0 0
422 2 62.234916828377486 58.367162942314465 3.908416379981864 0 0 0
423 3 62.211281388591615 58.37140836224812 7.219750562629998 0 0 0
424 1 61.27366725435243 60.03112371856655 5.552601075641384 0 0 0
425 2 65.17103515548803 59.94994907761972 3.9254312516514553 0 0 0
426 3 65.1470398244497 59.95119493543293 7.236681235484083 0 0 0
427 1 64.21410014795079 61.613226606862106 5.570735330497649 0 0 0
428 2 68.10146714144702 61.54741934753261 3.941774778130024 0 0 0
429 3 68.08023484296326 61.548761338797355 7.252966911797454 0 0 0
430 1 67.15125009284394 63.212221032740516 5.587938767430898 0 0 0
431 2 71.02662286047939 63.1598128135464 3.953758929751863 0 0 0
432 3 71.00983781257005 63.1636520771652 7.264929613796513 0 0 0
433 1 70.0842887413544 64.82772042179356 5.600341232616297 0 0 0
434 2 73.94802940700261 64.78574782778459 3.9598092996993213 0 0 0
435 3 73.93589355542896 64.79316568024282 7.271000950675948 0 0 0
436 1 73.01360296709814 66.45742329937696 5.60644723446892 0 0 0
437 2 76.86737841465894 66.42297888598821 3.960219351636539 0 0 0
438 3 76.85918610602772 66.43378787312938 7.271470101403101 0 0 0
439 1 75.94016076330063 68.0982681130075 5.606815915484713 0 0 0
440 2 79.78601001967225 68.06906650898108 3.9563322228167843 0 0 0
441 3 79.78078182927786 68.08224466703008 7.267668040734001 0 0 0
442 1 78.8649894711546 69.74728576855085 5.603082701028065 0 0 0
443 2 82.70481454390391 69.72177759904288 3.9498021052233456 0 0 0
444 3 82.70168882950958 69.73591461853219 7.261234538128949 0 0 0
445 1 81.78891315146494 71.40198204595522 5.5971185875885965 0 0 0
446 2 85.62432769172642 71.37921531639715 3.9421632637647246 0 0 0
447 3 85.62269706140417 71.39285367659646 7.253690811765578 0 0 0