ITEM: TIMESTEP
0
ITEM: NUMBER OF ATOMS
1986
ITEM: BOX BOUNDS xy xz yz pp pp pp
0.0000000000000000e+00 9.0603154408500004e+01 3.0201051477899998e+01
0.0000000000000000e+00 5.2309755572599997e+01 0.0000000000000000e+00
0.0000000000000000e+00 1.0000000000000000e+02 0.0000000000000000e+00
ITEM: ATOMS id type x y z
1 2 58.486 0.0526809 4.34441
2 3 58.486 0.0526809 7.43464
3 2 1.00366 1.63304 4.34441
4 3 1.00366 1.63304 7.43464
5 2 85.6761 47.4633 4.34441
6 3 85.6761 47.4633 7.43464
7 2 88.5958 49.0437 4.34441
8 3 88.5958 49.0437 7.43464
9 1 87.6834 50.7294 5.88952
10 2 31.1135 50.624 4.34441
11 3 31.1135 50.624 7.43464
12 1 60.4021 2.3644e-06 5.88952
13 2 34.0332 52.2044 4.34441
14 3 34.0332 52.2044 7.43464
15 1 2.91974 1.58036 5.88952
16 2 6.7519 1.475 4.34441
17 3 6.7519 1.475 7.43464
18 2 82.6651 42.5642 4.34441
19 3 82.6651 42.5642 7.43464
20 2 85.5849 44.1446 4.34441
21 3 85.5849 44.1446 7.43464
22 1 84.6724 45.8303 5.88952
23 2 28.1025 45.7249 4.34441
24 3 28.1025 45.7249 7.43464
25 1 87.5922 47.4107 5.88952
26 2 31.0222 47.3053 4.34441
27 3 31.0222 47.3053 7.43464
28 1 30.1098 48.991 5.88952
29 2 33.942 48.8857 4.34441
30 3 33.942 48.8857 7.43464
31 1 33.0296 50.5714 5.88952
32 2 36.8617 50.466 4.34441
33 3 36.8617 50.466 7.43464
34 1 35.9493 52.1517 5.88952
35 2 39.7814 52.0464 4.34441
36 3 39.7814 52.0464 7.43464
37 1 8.66798 1.42232 5.88952
38 2 12.5001 1.31697 4.34441
39 3 12.5001 1.31697 7.43464
40 2 79.6541 37.6651 4.34441
41 3 79.6541 37.6651 7.43464
42 2 82.5739 39.2455 4.34441
43 3 82.5739 39.2455 7.43464
44 1 81.6615 40.9312 5.88952
45 2 25.0915 40.8258 4.34441
46 3 25.0915 40.8258 7.43464
47 1 84.5812 42.5116 5.88952
48 2 28.0112 42.4062 4.34441
49 3 28.0112 42.4062 7.43464
50 1 27.0988 44.0919 5.88952
51 2 30.931 43.9866 4.34441
52 3 30.931 43.9866 7.43464
53 1 30.0186 45.6723 5.88952
54 2 33.8507 45.5669 4.34441
55 3 33.8507 45.5669 7.43464
56 1 32.9383 47.2526 5.88952
57 2 36.7705 47.1473 4.34441
58 3 36.7705 47.1473 7.43464
59 1 35.858 48.833 5.88952
60 2 39.6902 48.7276 4.34441
61 3 39.6902 48.7276 7.43464
62 1 38.7778 50.4133 5.88952
63 2 42.6099 50.308 4.34441
64 3 42.6099 50.308 7.43464
65 1 41.6975 51.9937 5.88952
66 2 45.5297 51.8883 4.34441
67 3 45.5297 51.8883 7.43464
68 1 14.4162 1.26429 5.88952
69 2 18.2484 1.15893 4.34441
70 3 18.2484 1.15893 7.43464
71 1 17.336 2.84464 5.88952
72 2 21.1681 2.73928 4.34441
73 3 21.1681 2.73928 7.43464
74 2 76.6432 32.766 4.34441
75 3 76.6432 32.766 7.43464
76 2 79.5629 34.3464 4.34441
77 3 79.5629 34.3464 7.43464
78 1 78.6505 36.0321 5.88952
79 2 22.0805 35.9267 4.34441
80 3 22.0805 35.9267 7.43464
81 1 81.5702 37.6125 5.88952
82 2 25.0003 37.5071 4.34441
83 3 25.0003 37.5071 7.43464
84 1 24.0878 39.1928 5.88952
85 2 27.92 39.0875 4.34441
86 3 27.92 39.0875 7.43464
87 1 27.0076 40.7732 5.88952
88 2 30.8397 40.6678 4.34441
89 3 30.8397 40.6678 7.43464
90 1 29.9273 42.3535 5.88952
91 2 33.7595 42.2482 4.34441
92 3 33.7595 42.2482 7.43464
93 1 32.8471 43.9339 5.88952
94 2 36.6792 43.8285 4.34441
95 3 36.6792 43.8285 7.43464
96 1 35.7668 45.5142 5.88952
97 2 39.599 45.4089 4.34441
98 3 39.599 45.4089 7.43464
99 1 38.6865 47.0946 5.88952
100 2 42.5187 46.9892 4.34441
101 3 42.5187 46.9892 7.43464
102 1 41.6063 48.6749 5.88952
103 2 45.4384 48.5696 4.34441
104 3 45.4384 48.5696 7.43464
105 1 44.526 50.2553 5.88952
106 2 48.3582 50.1499 4.34441
107 3 48.3582 50.1499 7.43464
108 1 47.4458 51.8357 5.88952
109 2 51.2779 51.7303 4.34441
110 3 51.2779 51.7303 7.43464
111 1 20.1645 1.10625 5.88952
112 2 23.9966 1.00089 4.34441
113 3 23.9966 1.00089 7.43464
114 1 23.0842 2.68661 5.88952
115 2 26.9163 2.58125 4.34441
116 3 26.9163 2.58125 7.43464
117 2 73.6322 27.8669 4.34441
118 3 73.6322 27.8669 7.43464
119 2 76.5519 29.4473 4.34441
120 3 76.5519 29.4473 7.43464
121 1 75.6395 31.133 5.88952
122 2 19.0695 31.0276 4.34441
123 3 19.0695 31.0276 7.43464
124 1 78.5592 32.7134 5.88952
125 2 21.9893 32.608 4.34441
126 3 21.9893 32.608 7.43464
127 1 21.0769 34.2937 5.88952
128 2 24.909 34.1884 4.34441
129 3 24.909 34.1884 7.43464
130 1 23.9966 35.8741 5.88952
131 2 27.8288 35.7687 4.34441
132 3 27.8288 35.7687 7.43464
133 1 26.9163 37.4544 5.88952
134 2 30.7485 37.3491 4.34441
135 3 30.7485 37.3491 7.43464
136 1 29.8361 39.0348 5.88952
137 2 33.6682 38.9294 4.34441
138 3 33.6682 38.9294 7.43464
139 1 32.7558 40.6151 5.88952
140 2 36.588 40.5098 4.34441
141 3 36.588 40.5098 7.43464
142 1 35.6756 42.1955 5.88952
143 2 39.5077 42.0901 4.34441
144 3 39.5077 42.0901 7.43464
145 1 38.5953 43.7758 5.88952
146 2 42.4275 43.6705 4.34441
147 3 42.4275 43.6705 7.43464
148 1 41.515 45.3562 5.88952
149 2 45.3472 45.2508 4.34441
150 3 45.3472 45.2508 7.43464
151 1 44.4348 46.9366 5.88952
152 2 48.2669 46.8312 4.34441
153 3 48.2669 46.8312 7.43464
154 1 47.3545 48.5169 5.88952
155 2 51.1867 48.4115 4.34441
156 3 51.1867 48.4115 7.43464
157 1 50.2743 50.0973 5.88952
158 2 54.1064 49.9919 4.34441
159 3 54.1064 49.9919 7.43464
160 1 53.194 51.6776 5.88952
161 2 57.0262 51.5723 4.34441
162 3 57.0262 51.5723 7.43464
163 1 25.9127 0.948215 5.88952
164 2 29.7448 0.842858 4.34441
165 3 29.7448 0.842858 7.43464
166 1 28.8324 2.52857 5.88952
167 2 32.6646 2.42321 4.34441
168 3 32.6646 2.42321 7.43464
169 2 70.6212 22.9678 4.34441
170 3 70.6212 22.9678 7.43464
171 2 73.5409 24.5482 4.34441
172 3 73.5409 24.5482 7.43464
173 1 72.6285 26.2339 5.88952
174 2 16.0586 26.1285 4.34441
175 3 16.0586 26.1285 7.43464
176 1 75.5483 27.8143 5.88952
177 2 18.9783 27.7089 4.34441
178 3 18.9783 27.7089 7.43464
179 1 18.0659 29.3946 5.88952
180 2 21.898 29.2893 4.34441
181 3 21.898 29.2893 7.43464
182 1 20.9856 30.975 5.88952
183 2 24.8178 30.8696 4.34441
184 3 24.8178 30.8696 7.43464
185 1 23.9054 32.5553 5.88952
186 2 27.7375 32.45 4.34441
187 3 27.7375 32.45 7.43464
188 1 26.8251 34.1357 5.88952
189 2 30.6573 34.0303 4.34441
190 3 30.6573 34.0303 7.43464
191 1 29.7448 35.716 5.88952
192 2 33.577 35.6107 4.34441
193 3 33.577 35.6107 7.43464
194 1 32.6646 37.2964 5.88952
195 2 36.4967 37.191 4.34441
196 3 36.4967 37.191 7.43464
197 1 35.5843 38.8767 5.88952
198 2 39.4165 38.7714 4.34441
199 3 39.4165 38.7714 7.43464
200 1 38.5041 40.4571 5.88952
201 2 42.3362 40.3517 4.34441
202 3 42.3362 40.3517 7.43464
203 1 41.4238 42.0374 5.88952
204 2 45.256 41.9321 4.34441
205 3 45.256 41.9321 7.43464
206 1 44.3435 43.6178 5.88952
207 2 48.1757 43.5124 4.34441
208 3 48.1757 43.5124 7.43464
209 1 47.2633 45.1982 5.88952
210 2 51.0954 45.0928 4.34441
211 3 51.0954 45.0928 7.43464
212 1 50.183 46.7785 5.88952
213 2 54.0152 46.6732 4.34441
214 3 54.0152 46.6732 7.43464
215 1 53.1028 48.3589 5.88952
216 2 56.9349 48.2535 4.34441
217 3 56.9349 48.2535 7.43464
218 1 56.0225 49.9392 5.88952
219 2 59.8547 49.8339 4.34441
220 3 59.8547 49.8339 7.43464
221 1 58.9422 51.5196 5.88952
222 2 62.7744 51.4142 4.34441
223 3 62.7744 51.4142 7.43464
224 1 31.6609 0.79018 5.88952
225 2 35.4931 0.684823 4.34441
226 3 35.4931 0.684823 7.43464
227 1 34.5807 2.37054 5.88952
228 2 38.4128 2.26518 4.34441
229 3 38.4128 2.26518 7.43464
230 2 67.6102 18.0687 4.34441
231 3 67.6102 18.0687 7.43464
232 2 70.5299 19.6491 4.34441
233 3 70.5299 19.6491 7.43464
234 1 69.6175 21.3348 5.88952
235 2 13.0476 21.2294 4.34441
236 3 13.0476 21.2294 7.43464
237 1 72.5373 22.9152 5.88952
238 2 15.9673 22.8098 4.34441
239 3 15.9673 22.8098 7.43464
240 1 15.0549 24.4955 5.88952
241 2 18.8871 24.3901 4.34441
242 3 18.8871 24.3901 7.43464
243 1 17.9746 26.0759 5.88952
244 2 21.8068 25.9705 4.34441
245 3 21.8068 25.9705 7.43464
246 1 20.8944 27.6562 5.88952
247 2 24.7265 27.5509 4.34441
248 3 24.7265 27.5509 7.43464
249 1 23.8141 29.2366 5.88952
250 2 27.6463 29.1312 4.34441
251 3 27.6463 29.1312 7.43464
252 1 26.7339 30.8169 5.88952
253 2 30.566 30.7116 4.34441
254 3 30.566 30.7116 7.43464
255 1 29.6536 32.3973 5.88952
256 2 33.4858 32.2919 4.34441
257 3 33.4858 32.2919 7.43464
258 1 32.5733 33.9776 5.88952
259 2 36.4055 33.8723 4.34441
260 3 36.4055 33.8723 7.43464
261 1 35.4931 35.558 5.88952
262 2 39.3252 35.4526 4.34441
263 3 39.3252 35.4526 7.43464
264 1 38.4128 37.1383 5.88952
265 2 42.245 37.033 4.34441
266 3 42.245 37.033 7.43464
267 1 41.3326 38.7187 5.88952
268 2 45.1647 38.6133 4.34441
269 3 45.1647 38.6133 7.43464
270 1 44.2523 40.2991 5.88952
271 2 48.0845 40.1937 4.34441
272 3 48.0845 40.1937 7.43464
273 1 47.172 41.8794 5.88952
274 2 51.0042 41.7741 4.34441
275 3 51.0042 41.7741 7.43464
276 1 50.0918 43.4598 5.88952
277 2 53.9239 43.3544 4.34441
278 3 53.9239 43.3544 7.43464
279 1 53.0115 45.0401 5.88952
280 2 56.8437 44.9348 4.34441
281 3 56.8437 44.9348 7.43464
282 1 55.9313 46.6205 5.88952
283 2 59.7634 46.5151 4.34441
284 3 59.7634 46.5151 7.43464
285 1 58.851 48.2008 5.88952
286 2 62.6832 48.0955 4.34441
287 3 62.6832 48.0955 7.43464
288 1 61.7707 49.7812 5.88952
289 2 65.6029 49.6758 4.34441
290 3 65.6029 49.6758 7.43464
291 1 64.6905 51.3615 5.88952
292 2 68.5226 51.2562 4.34441
293 3 68.5226 51.2562 7.43464
294 1 37.4092 0.632144 5.88952
295 2 41.2413 0.526787 4.34441
296 3 41.2413 0.526787 7.43464
297 1 40.3289 2.2125 5.88952
298 2 44.1611 2.10714 4.34441
299 3 44.1611 2.10714 7.43464
300 2 67.519 14.75 4.34441
301 3 67.519 14.75 7.43464
302 1 66.6065 16.4357 5.88952
303 2 10.0366 16.3303 4.34441
304 3 10.0366 16.3303 7.43464
305 1 69.5263 18.016 5.88952
306 2 12.9563 17.9107 4.34441
307 3 12.9563 17.9107 7.43464
308 1 12.0439 19.5964 5.88952
309 2 15.8761 19.491 4.34441
310 3 15.8761 19.491 7.43464
311 1 14.9637 21.1768 5.88952
312 2 18.7958 21.0714 4.34441
313 3 18.7958 21.0714 7.43464
314 1 17.8834 22.7571 5.88952
315 2 21.7156 22.6518 4.34441
316 3 21.7156 22.6518 7.43464
317 1 20.8031 24.3375 5.88952
318 2 24.6353 24.2321 4.34441
319 3 24.6353 24.2321 7.43464
320 1 23.7229 25.9178 5.88952
321 2 27.555 25.8125 4.34441
322 3 27.555 25.8125 7.43464
323 1 26.6426 27.4982 5.88952
324 2 30.4748 27.3928 4.34441
325 3 30.4748 27.3928 7.43464
326 1 29.5624 29.0785 5.88952
327 2 33.3945 28.9732 4.34441
328 3 33.3945 28.9732 7.43464
329 1 32.4821 30.6589 5.88952
330 2 36.3143 30.5535 4.34441
331 3 36.3143 30.5535 7.43464
332 1 35.4018 32.2392 5.88952
333 2 39.234 32.1339 4.34441
334 3 39.234 32.1339 7.43464
335 1 38.3216 33.8196 5.88952
336 2 42.1537 33.7142 4.34441
337 3 42.1537 33.7142 7.43464
338 1 41.2413 35.4 5.88952
339 2 45.0735 35.2946 4.34441
340 3 45.0735 35.2946 7.43464
341 1 44.1611 36.9803 5.88952
342 2 47.9932 36.875 4.34441
343 3 47.9932 36.875 7.43464
344 1 47.0808 38.5607 5.88952
345 2 50.913 38.4553 4.34441
346 3 50.913 38.4553 7.43464
347 1 50.0005 40.141 5.88952
348 2 53.8327 40.0357 4.34441
349 3 53.8327 40.0357 7.43464
350 1 52.9203 41.7214 5.88952
351 2 56.7524 41.616 4.34441
352 3 56.7524 41.616 7.43464
353 1 55.84 43.3017 5.88952
354 2 59.6722 43.1964 4.34441
355 3 59.6722 43.1964 7.43464
356 1 58.7598 44.8821 5.88952
357 2 62.5919 44.7767 4.34441
358 3 62.5919 44.7767 7.43464
359 1 61.6795 46.4624 5.88952
360 2 65.5116 46.3571 4.34441
361 3 65.5116 46.3571 7.43464
362 1 64.5992 48.0428 5.88952
363 2 68.4314 47.9374 4.34441
364 3 68.4314 47.9374 7.43464
365 1 67.519 49.6232 5.88952
366 2 71.3511 49.5178 4.34441
367 3 71.3511 49.5178 7.43464
368 1 70.4387 51.2035 5.88952
369 2 74.2709 51.0982 4.34441
370 3 74.2709 51.0982 7.43464
371 1 43.1574 0.474109 5.88952
372 2 46.9896 0.368752 4.34441
373 3 46.9896 0.368752 7.43464
374 1 46.0771 2.05446 5.88952
375 2 49.9093 1.94911 4.34441
376 3 49.9093 1.94911 7.43464
377 2 64.508 9.85088 4.34441
378 3 64.508 9.85088 7.43464
379 2 7.02562 11.4312 4.34441
380 3 7.02562 11.4312 7.43464
381 1 66.5153 13.1169 5.88952
382 2 9.94536 13.0116 4.34441
383 3 9.94536 13.0116 7.43464
384 1 9.03294 14.6973 5.88952
385 2 12.8651 14.5919 4.34441
386 3 12.8651 14.5919 7.43464
387 1 11.9527 16.2777 5.88952
388 2 15.7848 16.1723 4.34441
389 3 15.7848 16.1723 7.43464
390 1 14.8724 17.858 5.88952
391 2 18.7046 17.7527 4.34441
392 3 18.7046 17.7527 7.43464
393 1 17.7922 19.4384 5.88952
394 2 21.6243 19.333 4.34441
395 3 21.6243 19.333 7.43464
396 1 20.7119 21.0187 5.88952
397 2 24.5441 20.9134 4.34441
398 3 24.5441 20.9134 7.43464
399 1 23.6316 22.5991 5.88952
400 2 27.4638 22.4937 4.34441
401 3 27.4638 22.4937 7.43464
402 1 26.5514 24.1794 5.88952
403 2 30.3835 24.0741 4.34441
404 3 30.3835 24.0741 7.43464
405 1 29.4711 25.7598 5.88952
406 2 33.3033 25.6544 4.34441
407 3 33.3033 25.6544 7.43464
408 1 32.3909 27.3401 5.88952
409 2 36.223 27.2348 4.34441
410 3 36.223 27.2348 7.43464
411 1 35.3106 28.9205 5.88952
412 2 39.1428 28.8151 4.34441
413 3 39.1428 28.8151 7.43464
414 1 38.2303 30.5009 5.88952
415 2 42.0625 30.3955 4.34441
416 3 42.0625 30.3955 7.43464
417 1 41.1501 32.0812 5.88952
418 2 44.9822 31.9759 4.34441
419 3 44.9822 31.9759 7.43464
420 1 44.0698 33.6616 5.88952
421 2 47.902 33.5562 4.34441
422 3 47.902 33.5562 7.43464
423 1 46.9896 35.2419 5.88952
424 2 50.8217 35.1366 4.34441
425 3 50.8217 35.1366 7.43464
426 1 49.9093 36.8223 5.88952
427 2 53.7415 36.7169 4.34441
428 3 53.7415 36.7169 7.43464
429 1 52.829 38.4026 5.88952
430 2 56.6612 38.2973 4.34441
431 3 56.6612 38.2973 7.43464
432 1 55.7488 39.983 5.88952
433 2 59.5809 39.8776 4.34441
434 3 59.5809 39.8776 7.43464
435 1 58.6685 41.5633 5.88952
436 2 62.5007 41.458 4.34441
437 3 62.5007 41.458 7.43464
438 1 61.5882 43.1437 5.88952
439 2 65.4204 43.0383 4.34441
440 3 65.4204 43.0383 7.43464
441 1 64.508 44.7241 5.88952
442 2 68.3401 44.6187 4.34441
443 3 68.3401 44.6187 7.43464
444 1 67.4277 46.3044 5.88952
445 2 71.2599 46.1991 4.34441
446 3 71.2599 46.1991 7.43464
447 1 70.3475 47.8848 5.88952
448 2 74.1796 47.7794 4.34441
449 3 74.1796 47.7794 7.43464
450 1 73.2672 49.4651 5.88952
451 2 77.0994 49.3598 4.34441
452 3 77.0994 49.3598 7.43464
453 1 76.1869 51.0455 5.88952
454 2 80.0191 50.9401 4.34441
455 3 80.0191 50.9401 7.43464
456 1 48.9056 0.316073 5.88952
457 2 52.7378 0.210716 4.34441
458 3 52.7378 0.210716 7.43464
459 1 51.8254 1.89643 5.88952
460 2 55.6575 1.79107 4.34441
461 3 55.6575 1.79107 7.43464
462 2 61.497 4.95178 4.34441
463 3 61.497 4.95178 7.43464
464 2 4.01464 6.53213 4.34441
465 3 4.01464 6.53213 7.43464
466 1 63.5043 8.21785 5.88952
467 2 6.93438 8.11249 4.34441
468 3 6.93438 8.11249 7.43464
469 1 6.02196 9.7982 5.88952
470 2 9.85412 9.69285 4.34441
471 3 9.85412 9.69285 7.43464
472 1 8.9417 11.3786 5.88952
473 2 12.7739 11.2732 4.34441
474 3 12.7739 11.2732 7.43464
475 1 11.8614 12.9589 5.88952
476 2 15.6936 12.8536 4.34441
477 3 15.6936 12.8536 7.43464
478 1 14.7812 14.5393 5.88952
479 2 18.6133 14.4339 4.34441
480 3 18.6133 14.4339 7.43464
481 1 17.7009 16.1196 5.88952
482 2 21.5331 16.0143 4.34441
483 3 21.5331 16.0143 7.43464
484 1 20.6207 17.7 5.88952
485 2 24.4528 17.5946 4.34441
486 3 24.4528 17.5946 7.43464
487 1 23.5404 19.2803 5.88952
488 2 27.3726 19.175 4.34441
489 3 27.3726 19.175 7.43464
490 1 26.4601 20.8607 5.88952
491 2 30.2923 20.7553 4.34441
492 3 30.2923 20.7553 7.43464
493 1 29.3799 22.441 5.88952
494 2 33.212 22.3357 4.34441
495 3 33.212 22.3357 7.43464
496 1 32.2996 24.0214 5.88952
497 2 36.1318 23.916 4.34441
498 3 36.1318 23.916 7.43464
499 1 35.2194 25.6018 5.88952
500 2 39.0515 25.4964 4.34441
501 3 39.0515 25.4964 7.43464
502 1 38.1391 27.1821 5.88952
503 2 41.9713 27.0768 4.34441
504 3 41.9713 27.0768 7.43464
505 1 41.0588 28.7625 5.88952
506 2 44.891 28.6571 4.34441
507 3 44.891 28.6571 7.43464
508 1 43.9786 30.3428 5.88952
509 2 47.8107 30.2375 4.34441
510 3 47.8107 30.2375 7.43464
511 1 46.8983 31.9232 5.88952
512 2 50.7305 31.8178 4.34441
513 3 50.7305 31.8178 7.43464
514 1 49.8181 33.5035 5.88952
515 2 53.6502 33.3982 4.34441
516 3 53.6502 33.3982 7.43464
517 1 52.7378 35.0839 5.88952
518 2 56.5699 34.9785 4.34441
519 3 56.5699 34.9785 7.43464
520 1 55.6575 36.6642 5.88952
521 2 59.4897 36.5589 4.34441
522 3 59.4897 36.5589 7.43464
523 1 58.5773 38.2446 5.88952
524 2 62.4094 38.1392 4.34441
525 3 62.4094 38.1392 7.43464
526 1 61.497 39.825 5.88952
527 2 65.3292 39.7196 4.34441
528 3 65.3292 39.7196 7.43464
529 1 64.4167 41.4053 5.88952
530 2 68.2489 41.2999 4.34441
531 3 68.2489 41.2999 7.43464
532 1 67.3365 42.9857 5.88952
533 2 71.1686 42.8803 4.34441
534 3 71.1686 42.8803 7.43464
535 1 70.2562 44.566 5.88952
536 2 74.0884 44.4607 4.34441
537 3 74.0884 44.4607 7.43464
538 1 73.176 46.1464 5.88952
539 2 77.0081 46.041 4.34441
540 3 77.0081 46.041 7.43464
541 1 76.0957 47.7267 5.88952
542 2 79.9279 47.6214 4.34441
543 3 79.9279 47.6214 7.43464
544 1 79.0154 49.3071 5.88952
545 2 82.8476 49.2017 4.34441
546 3 82.8476 49.2017 7.43464
547 1 81.9352 50.8874 5.88952
548 2 85.7673 50.7821 4.34441
549 3 85.7673 50.7821 7.43464
550 1 54.6539 0.158038 5.88952
551 1 57.5736 1.73839 5.88952
552 1 60.4933 3.31875 5.88952
553 2 3.9234 3.21339 4.34441
554 3 3.9234 3.21339 7.43464
555 1 3.01098 4.8991 5.88952
556 2 6.84314 4.79374 4.34441
557 3 6.84314 4.79374 7.43464
558 1 5.93072 6.47946 5.88952
559 2 9.76288 6.3741 4.34441
560 3 9.76288 6.3741 7.43464
561 1 8.85046 8.05981 5.88952
562 2 12.6826 7.95445 4.34441
563 3 12.6826 7.95445 7.43464
564 1 11.7702 9.64017 5.88952
565 2 15.6024 9.53481 4.34441
566 3 15.6024 9.53481 7.43464
567 1 14.6899 11.2205 5.88952
568 2 18.5221 11.1152 4.34441
569 3 18.5221 11.1152 7.43464
570 1 17.6097 12.8009 5.88952
571 2 21.4418 12.6955 4.34441
572 3 21.4418 12.6955 7.43464
573 1 20.5294 14.3812 5.88952
574 2 24.3616 14.2759 4.34441
575 3 24.3616 14.2759 7.43464
576 1 23.4492 15.9616 5.88952
577 2 27.2813 15.8562 4.34441
578 3 27.2813 15.8562 7.43464
579 1 26.3689 17.5419 5.88952
580 2 30.2011 17.4366 4.34441
581 3 30.2011 17.4366 7.43464
582 1 29.2886 19.1223 5.88952
583 2 33.1208 19.0169 4.34441
584 3 33.1208 19.0169 7.43464
585 1 32.2084 20.7027 5.88952
586 2 36.0405 20.5973 4.34441
587 3 36.0405 20.5973 7.43464
588 1 35.1281 22.283 5.88952
589 2 38.9603 22.1777 4.34441
590 3 38.9603 22.1777 7.43464
591 1 38.0479 23.8634 5.88952
592 2 41.88 23.758 4.34441
593 3 41.88 23.758 7.43464
594 1 40.9676 25.4437 5.88952
595 2 44.7997 25.3384 4.34441
596 3 44.7997 25.3384 7.43464
597 1 43.8873 27.0241 5.88952
598 2 47.7195 26.9187 4.34441
599 3 47.7195 26.9187 7.43464
600 1 46.8071 28.6044 5.88952
601 2 50.6392 28.4991 4.34441
602 3 50.6392 28.4991 7.43464
603 1 49.7268 30.1848 5.88952
604 2 53.559 30.0794 4.34441
605 3 53.559 30.0794 7.43464
606 1 52.6465 31.7651 5.88952
607 2 56.4787 31.6598 4.34441
608 3 56.4787 31.6598 7.43464
609 1 55.5663 33.3455 5.88952
610 2 59.3984 33.2401 4.34441
611 3 59.3984 33.2401 7.43464
612 1 58.486 34.9259 5.88952
613 2 62.3182 34.8205 4.34441
614 3 62.3182 34.8205 7.43464
615 1 61.4058 36.5062 5.88952
616 2 65.2379 36.4008 4.34441
617 3 65.2379 36.4008 7.43464
618 1 64.3255 38.0866 5.88952
619 2 68.1577 37.9812 4.34441
620 3 68.1577 37.9812 7.43464
621 1 67.2452 39.6669 5.88952
622 2 71.0774 39.5616 4.34441
623 3 71.0774 39.5616 7.43464
624 1 70.165 41.2473 5.88952
625 2 73.9971 41.1419 4.34441
626 3 73.9971 41.1419 7.43464
627 1 73.0847 42.8276 5.88952
628 2 76.9169 42.7223 4.34441
629 3 76.9169 42.7223 7.43464
630 1 76.0045 44.408 5.88952
631 2 79.8366 44.3026 4.34441
632 3 79.8366 44.3026 7.43464
633 1 78.9242 45.9883 5.88952
634 2 82.7564 45.883 4.34441
635 3 82.7564 45.883 7.43464
636 1 81.8439 47.5687 5.88952
637 1 84.7637 49.149 5.88952
638 1 5.83948 3.16071 5.88952
639 2 9.67164 3.05535 4.34441
640 3 9.67164 3.05535 7.43464
641 1 8.75922 4.74107 5.88952
642 2 12.5914 4.63571 4.34441
643 3 12.5914 4.63571 7.43464
644 1 11.679 6.32142 5.88952
645 2 15.5111 6.21606 4.34441
646 3 15.5111 6.21606 7.43464
647 1 14.5987 7.90178 5.88952
648 2 18.4309 7.79642 4.34441
649 3 18.4309 7.79642 7.43464
650 1 17.5184 9.48213 5.88952
651 2 21.3506 9.37677 4.34441
652 3 21.3506 9.37677 7.43464
653 1 20.4382 11.0625 5.88952
654 2 24.2703 10.9571 4.34441
655 3 24.2703 10.9571 7.43464
656 1 23.3579 12.6428 5.88952
657 2 27.1901 12.5375 4.34441
658 3 27.1901 12.5375 7.43464
659 1 26.2777 14.2232 5.88952
660 2 30.1098 14.1178 4.34441
661 3 30.1098 14.1178 7.43464
662 1 29.1974 15.8036 5.88952
663 2 33.0296 15.6982 4.34441
664 3 33.0296 15.6982 7.43464
665 1 32.1171 17.3839 5.88952
666 2 35.9493 17.2786 4.34441
667 3 35.9493 17.2786 7.43464
668 1 35.0369 18.9643 5.88952
669 2 38.869 18.8589 4.34441
670 3 38.869 18.8589 7.43464
671 1 37.9566 20.5446 5.88952
672 2 41.7888 20.4393 4.34441
673 3 41.7888 20.4393 7.43464
674 1 40.8763 22.125 5.88952
675 2 44.7085 22.0196 4.34441
676 3 44.7085 22.0196 7.43464
677 1 43.7961 23.7053 5.88952
678 2 47.6282 23.6 4.34441
679 3 47.6282 23.6 7.43464
680 1 46.7158 25.2857 5.88952
681 2 50.548 25.1803 4.34441
682 3 50.548 25.1803 7.43464
683 1 49.6356 26.866 5.88952
684 2 53.4677 26.7607 4.34441
685 3 53.4677 26.7607 7.43464
686 1 52.5553 28.4464 5.88952
687 2 56.3875 28.341 4.34441
688 3 56.3875 28.341 7.43464
689 1 55.475 30.0267 5.88952
690 2 59.3072 29.9214 4.34441
691 3 59.3072 29.9214 7.43464
692 1 58.3948 31.6071 5.88952
693 2 62.2269 31.5017 4.34441
694 3 62.2269 31.5017 7.43464
695 1 61.3145 33.1875 5.88952
696 2 65.1467 33.0821 4.34441
697 3 65.1467 33.0821 7.43464
698 1 64.2343 34.7678 5.88952
699 2 68.0664 34.6625 4.34441
700 3 68.0664 34.6625 7.43464
701 1 67.154 36.3482 5.88952
702 2 70.9862 36.2428 4.34441
703 3 70.9862 36.2428 7.43464
704 1 70.0737 37.9285 5.88952
705 2 73.9059 37.8232 4.34441
706 3 73.9059 37.8232 7.43464
707 1 72.9935 39.5089 5.88952
708 2 76.8256 39.4035 4.34441
709 3 76.8256 39.4035 7.43464
710 1 75.9132 41.0892 5.88952
711 2 79.7454 40.9839 4.34441
712 3 79.7454 40.9839 7.43464
713 1 78.833 42.6696 5.88952
714 1 81.7527 44.2499 5.88952
715 1 11.5877 3.00267 5.88952
716 2 15.4199 2.89732 4.34441
717 3 15.4199 2.89732 7.43464
718 1 14.5075 4.58303 5.88952
719 2 18.3396 4.47767 4.34441
720 3 18.3396 4.47767 7.43464
721 1 17.4272 6.16339 5.88952
722 2 21.2594 6.05803 4.34441
723 3 21.2594 6.05803 7.43464
724 1 20.3469 7.74374 5.88952
725 2 24.1791 7.63838 4.34441
726 3 24.1791 7.63838 7.43464
727 1 23.2667 9.3241 5.88952
728 2 27.0988 9.21874 4.34441
729 3 27.0988 9.21874 7.43464
730 1 26.1864 10.9045 5.88952
731 2 30.0186 10.7991 4.34441
732 3 30.0186 10.7991 7.43464
733 1 29.1062 12.4848 5.88952
734 2 32.9383 12.3794 4.34441
735 3 32.9383 12.3794 7.43464
736 1 32.0259 14.0652 5.88952
737 2 35.858 13.9598 4.34441
738 3 35.858 13.9598 7.43464
739 1 34.9456 15.6455 5.88952
740 2 38.7778 15.5402 4.34441
741 3 38.7778 15.5402 7.43464
742 1 37.8654 17.2259 5.88952
743 2 41.6975 17.1205 4.34441
744 3 41.6975 17.1205 7.43464
745 1 40.7851 18.8062 5.88952
746 2 44.6173 18.7009 4.34441
747 3 44.6173 18.7009 7.43464
748 1 43.7048 20.3866 5.88952
749 2 47.537 20.2812 4.34441
750 3 47.537 20.2812 7.43464
751 1 46.6246 21.9669 5.88952
752 2 50.4567 21.8616 4.34441
753 3 50.4567 21.8616 7.43464
754 1 49.5443 23.5473 5.88952
755 2 53.3765 23.4419 4.34441
756 3 53.3765 23.4419 7.43464
757 1 52.4641 25.1276 5.88952
758 2 56.2962 25.0223 4.34441
759 3 56.2962 25.0223 7.43464
760 1 55.3838 26.708 5.88952
761 2 59.216 26.6026 4.34441
762 3 59.216 26.6026 7.43464
763 1 58.3035 28.2884 5.88952
764 2 62.1357 28.183 4.34441
765 3 62.1357 28.183 7.43464
766 1 61.2233 29.8687 5.88952
767 2 65.0554 29.7634 4.34441
768 3 65.0554 29.7634 7.43464
769 1 64.143 31.4491 5.88952
770 2 67.9752 31.3437 4.34441
771 3 67.9752 31.3437 7.43464
772 1 67.0628 33.0294 5.88952
773 2 70.8949 32.9241 4.34441
774 3 70.8949 32.9241 7.43464
775 1 69.9825 34.6098 5.88952
776 2 73.8147 34.5044 4.34441
777 3 73.8147 34.5044 7.43464
778 1 72.9022 36.1901 5.88952
779 2 76.7344 36.0848 4.34441
780 3 76.7344 36.0848 7.43464
781 1 75.822 37.7705 5.88952
782 1 78.7417 39.3508 5.88952
783 1 20.2557 4.42499 5.88952
784 2 24.0878 4.31964 4.34441
785 3 24.0878 4.31964 7.43464
786 1 23.1754 6.00535 5.88952
787 2 27.0076 5.89999 4.34441
788 3 27.0076 5.89999 7.43464
789 1 26.0952 7.58571 5.88952
790 2 29.9273 7.48035 4.34441
791 3 29.9273 7.48035 7.43464
792 1 29.0149 9.16606 5.88952
793 2 32.8471 9.0607 4.34441
794 3 32.8471 9.0607 7.43464
795 1 31.9346 10.7464 5.88952
796 2 35.7668 10.6411 4.34441
797 3 35.7668 10.6411 7.43464
798 1 34.8544 12.3268 5.88952
799 2 38.6865 12.2214 4.34441
800 3 38.6865 12.2214 7.43464
801 1 37.7741 13.9071 5.88952
802 2 41.6063 13.8018 4.34441
803 3 41.6063 13.8018 7.43464
804 1 40.6939 15.4875 5.88952
805 2 44.526 15.3821 4.34441
806 3 44.526 15.3821 7.43464
807 1 43.6136 17.0678 5.88952
808 2 47.4458 16.9625 4.34441
809 3 47.4458 16.9625 7.43464
810 1 46.5333 18.6482 5.88952
811 2 50.3655 18.5428 4.34441
812 3 50.3655 18.5428 7.43464
813 1 49.4531 20.2285 5.88952
814 2 53.2852 20.1232 4.34441
815 3 53.2852 20.1232 7.43464
816 1 52.3728 21.8089 5.88952
817 2 56.205 21.7035 4.34441
818 3 56.205 21.7035 7.43464
819 1 55.2926 23.3893 5.88952
820 2 59.1247 23.2839 4.34441
821 3 59.1247 23.2839 7.43464
822 1 58.2123 24.9696 5.88952
823 2 62.0445 24.8643 4.34441
824 3 62.0445 24.8643 7.43464
825 1 61.132 26.55 5.88952
826 2 64.9642 26.4446 4.34441
827 3 64.9642 26.4446 7.43464
828 1 64.0518 28.1303 5.88952
829 2 67.8839 28.025 4.34441
830 3 67.8839 28.025 7.43464
831 1 66.9715 29.7107 5.88952
832 2 70.8037 29.6053 4.34441
833 3 70.8037 29.6053 7.43464
834 1 69.8913 31.291 5.88952
835 2 73.7234 31.1857 4.34441
836 3 73.7234 31.1857 7.43464
837 1 72.811 32.8714 5.88952
838 1 75.7307 34.4517 5.88952
839 1 26.0039 4.26696 5.88952
840 2 29.8361 4.1616 4.34441
841 3 29.8361 4.1616 7.43464
842 1 28.9237 5.84731 5.88952
843 2 32.7558 5.74196 4.34441
844 3 32.7558 5.74196 7.43464
845 1 31.8434 7.42767 5.88952
846 2 35.6756 7.32231 4.34441
847 3 35.6756 7.32231 7.43464
848 1 34.7631 9.00802 5.88952
849 2 38.5953 8.90267 4.34441
850 3 38.5953 8.90267 7.43464
851 1 37.6829 10.5884 5.88952
852 2 41.515 10.483 4.34441
853 3 41.515 10.483 7.43464
854 1 40.6026 12.1687 5.88952
855 2 44.4348 12.0634 4.34441
856 3 44.4348 12.0634 7.43464
857 1 43.5224 13.7491 5.88952
858 2 47.3545 13.6437 4.34441
859 3 47.3545 13.6437 7.43464
860 1 46.4421 15.3294 5.88952
861 2 50.2743 15.2241 4.34441
862 3 50.2743 15.2241 7.43464
863 1 49.3618 16.9098 5.88952
864 2 53.194 16.8044 4.34441
865 3 53.194 16.8044 7.43464
866 1 52.2816 18.4902 5.88952
867 2 56.1137 18.3848 4.34441
868 3 56.1137 18.3848 7.43464
869 1 55.2013 20.0705 5.88952
870 2 59.0335 19.9652 4.34441
871 3 59.0335 19.9652 7.43464
872 1 58.1211 21.6509 5.88952
873 2 61.9532 21.5455 4.34441
874 3 61.9532 21.5455 7.43464
875 1 61.0408 23.2312 5.88952
876 2 64.873 23.1259 4.34441
877 3 64.873 23.1259 7.43464
878 1 63.9605 24.8116 5.88952
879 2 67.7927 24.7062 4.34441
880 3 67.7927 24.7062 7.43464
881 1 66.8803 26.3919 5.88952
882 2 70.7124 26.2866 4.34441
883 3 70.7124 26.2866 7.43464
884 1 69.8 27.9723 5.88952
885 1 72.7198 29.5526 5.88952
886 1 31.7522 4.10892 5.88952
887 2 35.5843 4.00357 4.34441
888 3 35.5843 4.00357 7.43464
889 1 34.6719 5.68928 5.88952
890 2 38.5041 5.58392 4.34441
891 3 38.5041 5.58392 7.43464
892 1 37.5916 7.26963 5.88952
893 2 41.4238 7.16428 4.34441
894 3 41.4238 7.16428 7.43464
895 1 40.5114 8.84999 5.88952
896 2 44.3435 8.74463 4.34441
897 3 44.3435 8.74463 7.43464
898 1 43.4311 10.4303 5.88952
899 2 47.2633 10.325 4.34441
900 3 47.2633 10.325 7.43464
901 1 46.3509 12.0107 5.88952
902 2 50.183 11.9053 4.34441
903 3 50.183 11.9053 7.43464
904 1 49.2706 13.5911 5.88952
905 2 53.1028 13.4857 4.34441
906 3 53.1028 13.4857 7.43464
907 1 52.1903 15.1714 5.88952
908 2 56.0225 15.0661 4.34441
909 3 56.0225 15.0661 7.43464
910 1 55.1101 16.7518 5.88952
911 2 58.9422 16.6464 4.34441
912 3 58.9422 16.6464 7.43464
913 1 58.0298 18.3321 5.88952
914 2 61.862 18.2268 4.34441
915 3 61.862 18.2268 7.43464
916 1 60.9496 19.9125 5.88952
917 2 64.7817 19.8071 4.34441
918 3 64.7817 19.8071 7.43464
919 1 63.8693 21.4928 5.88952
920 2 67.7015 21.3875 4.34441
921 3 67.7015 21.3875 7.43464
922 1 66.789 23.0732 5.88952
923 1 69.7088 24.6535 5.88952
924 1 37.5004 3.95089 5.88952
925 2 41.3326 3.84553 4.34441
926 3 41.3326 3.84553 7.43464
927 1 40.4201 5.53124 5.88952
928 2 44.2523 5.42589 4.34441
929 3 44.2523 5.42589 7.43464
930 1 43.3399 7.1116 5.88952
931 2 47.172 7.00624 4.34441
932 3 47.172 7.00624 7.43464
933 1 46.2596 8.69195 5.88952
934 2 50.0918 8.5866 4.34441
935 3 50.0918 8.5866 7.43464
936 1 49.1794 10.2723 5.88952
937 2 53.0115 10.167 4.34441
938 3 53.0115 10.167 7.43464
939 1 52.0991 11.8527 5.88952
940 2 55.9313 11.7473 4.34441
941 3 55.9313 11.7473 7.43464
942 1 55.0188 13.433 5.88952
943 2 58.851 13.3277 4.34441
944 3 58.851 13.3277 7.43464
945 1 57.9386 15.0134 5.88952
946 2 61.7707 14.908 4.34441
947 3 61.7707 14.908 7.43464
948 1 60.8583 16.5937 5.88952
949 2 64.6905 16.4884 4.34441
950 3 64.6905 16.4884 7.43464
951 1 63.7781 18.1741 5.88952
952 1 66.6978 19.7544 5.88952
953 1 43.2486 3.79285 5.88952
954 2 47.0808 3.6875 4.34441
955 3 47.0808 3.6875 7.43464
956 1 46.1684 5.37321 5.88952
957 2 50.0005 5.26785 4.34441
958 3 50.0005 5.26785 7.43464
959 1 49.0881 6.95356 5.88952
960 2 52.9203 6.84821 4.34441
961 3 52.9203 6.84821 7.43464
962 1 52.0079 8.53392 5.88952
963 2 55.84 8.42856 4.34441
964 3 55.84 8.42856 7.43464
965 1 54.9276 10.1143 5.88952
966 2 58.7598 10.0089 4.34441
967 3 58.7598 10.0089 7.43464
968 1 57.8473 11.6946 5.88952
969 2 61.6795 11.5893 4.34441
970 3 61.6795 11.5893 7.43464
971 1 60.7671 13.275 5.88952
972 2 64.5992 13.1696 4.34441
973 3 64.5992 13.1696 7.43464
974 1 63.6868 14.8553 5.88952
975 1 48.9969 3.63482 5.88952
976 2 52.829 3.52946 4.34441
977 3 52.829 3.52946 7.43464
978 1 51.9166 5.21517 5.88952
979 2 55.7488 5.10982 4.34441
980 3 55.7488 5.10982 7.43464
981 1 54.8364 6.79553 5.88952
982 2 58.6685 6.69017 4.34441
983 3 58.6685 6.69017 7.43464
984 1 57.7561 8.37588 5.88952
985 2 61.5882 8.27053 4.34441
986 3 61.5882 8.27053 7.43464
987 1 60.6758 9.95624 5.88952
988 1 63.5956 11.5366 5.88952
989 1 54.7451 3.47678 5.88952
990 2 58.5773 3.37142 4.34441
991 3 58.5773 3.37142 7.43464
992 1 57.6649 5.05714 5.88952
993 1 60.5846 6.63749 5.88952
994 5 59.3984 1.63304 10.2444
995 6 59.3984 1.63304 13.3346
996 5 86.8622 48.8857 10.2444
997 6 86.8622 48.8857 13.3346
998 4 87.7747 50.5714 11.7895
999 5 29.2886 50.624 10.2444
1000 6 29.2886 50.624 13.3346