LAMMPS data file via write_data, version 7 Jan 2022, timestep = 593

1986 atoms
6 atom types

0 60.4021029306 xlo xhi
0 52.3097555726 ylo yhi
0 100 zlo zhi
30.2010514779 0 0 xy xz yz

Masses

1 95.94
2 78.95999999999999
3 78.95999999999999
4 183.84
5 78.95999999999999
6 78.95999999999999

Atoms # atomic

1 2 58.486617032190026 0.04538333609817465 3.9247140240352767 -1 1 0
2 3 58.48248646795367 0.04502350176299871 7.236475579636814 -1 1 0
3 2 0.9970478779827996 1.6361714308939814 3.9247140240784324 0 1 0
4 3 0.9988015353707093 1.6399285213631574 7.236475579679843 0 1 0
5 2 85.69445297026955 47.47860954951482 3.914104867041606 -1 0 0
6 3 85.69250158667442 47.470741769715 7.225876673995188 -1 0 0
7 2 88.61287937510136 49.04857246860768 3.921302935304321 -1 0 0
8 3 88.61185624095901 49.041286236425734 7.233068124980936 -1 0 0
9 1 87.68345887708007 50.72310598281193 5.577848205141362 -1 0 0
10 2 31.119495370924103 50.628204715676766 3.9247140234487663 0 0 0
11 3 31.12187227879631 50.62480745795796 7.236475579047649 0 0 0
12 1 1.957712153419792e-06 1.3028565388636777e-06 5.5811755591230225 0 1 0
13 2 34.02046047478176 52.21671864368338 3.9213029357082982 0 0 0
14 3 34.02728210370667 52.21947569825215 7.233068125383617 0 0 0
15 1 2.9127840203681123 1.5967243878081603 5.577162200441269 0 1 0
16 2 6.715404440755767 1.5016899788385316 3.909758548873702 0 1 0
17 3 6.726872785258827 1.5119147742716714 7.221528152555619 0 1 0
18 2 82.70029498030407 42.6289254200997 3.8992649949543816 -1 0 0
19 3 82.71046618793633 42.61865124832212 7.211026154565713 -1 0 0
20 2 85.62787425775973 44.18338609209976 3.9024080521985014 -1 0 0
21 3 85.6331144851568 44.16900139812289 7.214182169335253 -1 0 0
22 1 84.68946835813558 45.84990272735516 5.564027257135905 -1 0 0
23 2 28.143852737329677 45.743203390289594 3.9097585472354437 0 0 0
24 3 28.146973498396793 45.7281591136533 7.221528150915001 0 0 0
25 1 87.61368011737123 47.413941577081296 5.571230351756863 -1 0 0
26 2 31.051046306558547 47.311529388796096 3.9163965673484173 0 0 0
27 3 31.054722583908916 47.29959670819912 7.228160645770569 0 0 0
28 1 30.127465159555832 48.988852070180926 5.577162199568288 0 0 0
29 2 33.948614660050545 48.88904807052203 3.918502191739374 0 0 0
30 3 33.9542314530909 48.88320699396498 7.230265059829502 0 0 0
31 1 33.03498216112251 50.574550124009335 5.5778482047151945 0 0 0
32 2 36.83930144907903 50.47426869698363 3.914104867297356 0 0 0
33 3 36.847090837495436 50.476512637515896 7.2258766742454625 0 0 0
34 1 35.93569198133845 52.1687021472817 5.571230352520995 0 0 0
35 2 39.726338030196835 52.06422156876056 3.9024080540365604 0 0 0
36 3 39.736175425947515 52.07595208423491 7.2141821711727 0 0 0
37 1 8.63108806493337 1.4579609592899323 5.556497156910424 0 1 0
38 2 12.411998951191476 1.3455118465423883 3.882811057729227 0 1 0
39 3 12.424001503613908 1.3678671896018024 7.194540411177683 0 1 0
40 2 79.70264690362151 37.78778596711668 3.893378958247838 -1 0 0
41 3 79.7297598365321 37.776991967407284 7.205019385033627 -1 0 0
42 2 82.63414909095184 39.33962594044058 3.8834188268595167 -1 0 0
43 3 82.65476397340552 39.32291634683953 7.1951165382701205 -1 0 0
44 1 81.69918462515905 41.002992922592185 5.551381053940901 -1 0 0
45 2 25.160301252322537 40.88789689538562 3.8828110540298493 0 0 0
46 3 25.173660271658044 40.86632470662105 7.19454040746655 0 0 0
47 1 84.62755351919158 42.552232044008036 5.550585399651947 -1 0 0
48 2 28.080059226360056 42.43835064572392 3.889544330643624 0 0 0
49 3 28.08792908095102 42.415066710613544 7.201289428371658 0 0 0
50 1 27.148140484235384 44.10603721495425 5.556497154710573 0 0 0
51 2 30.988418560869395 43.99550776832901 3.899080793743498 0 0 0
52 3 30.99350695669833 43.974545768038006 7.2108338696179315 0 0 0
53 1 30.062179933196628 45.66907902395812 5.564512340167654 0 0 0
54 2 33.885488567368526 45.56170796860333 3.9069212736106986 0 0 0
55 3 33.88974901272055 45.54658935657909 7.218677521597533 0 0 0
56 1 32.96662760409377 47.243039635514506 5.570067934396149 0 0 0
57 2 36.77359263512556 47.13697669222224 3.9102656297723173 0 0 0
58 3 36.777702686566826 47.13008729526898 7.222026725758799 0 0 0
59 1 35.862525847921866 48.82698495016795 5.570315262057948 0 0 0
60 2 39.65603779510644 48.71944512552492 3.9079233252552967 0 0 0
61 3 39.6599641319107 48.722334619672054 7.219692677271661 0 0 0
62 1 38.75229523812555 50.41827990214951 5.564027257914903 0 0 0
63 2 42.536330100929916 50.30609387895182 3.899264997118533 0 0 0
64 3 42.54014218973635 50.32003948725147 7.211026156726066 0 0 0
65 1 41.63911924204688 52.01349542024653 5.550585402223737 0 0 0
66 2 45.41801995487374 51.89345959879036 3.883418831176365 0 0 0
67 3 45.4221834447429 51.91966740565739 7.195116542597262 0 0 0
68 1 14.325448712234982 1.2991701564097127 5.529215557438403 0 1 0
69 2 18.103763129347847 1.1684921247164668 3.859378800230949 0 1 0
70 3 18.108820746588524 1.207667993499735 7.170902439605016 0 1 0
71 1 17.2169565296554 2.891175616623392 5.499176873771323 0 1 0
72 2 20.99949358959657 2.748133723588386 3.8269051784745156 0 1 0
73 3 21.005365674951474 2.7996020282919014 7.138122779356629 0 1 0
74 2 76.70528859291603 32.93291172567188 3.896191399856218 -1 0 0
75 3 76.74509905602912 32.919385240593996 7.207627131539897 -1 0 0
76 2 79.63236853173672 34.496175591157744 3.8745106646516385 -1 0 0
77 3 79.67044159051014 34.478125266781404 7.185982369898962 -1 0 0
78 1 78.7106289420326 36.159773467086666 5.549334073553381 -1 0 0
79 2 22.161115585505733 36.04719438623071 3.8593787935520094 0 0 0
80 3 22.19251407513597 36.0232264245157 7.170902432892208 0 0 0
81 1 81.6383037868095 37.709961585684205 5.534619941849326 -1 0 0
82 2 25.091041005357468 37.59094893512978 3.8546132873112997 0 0 0
83 3 25.11298358444881 37.56160875018788 7.166195598012674 0 0 0
84 1 24.163443290972236 39.253971637531926 5.52921555278575 0 0 0
85 2 28.014331597528347 39.13341229820689 3.8602186750424954 0 0 0
86 3 28.02712192955625 39.101502475494186 7.171852714462908 0 0 0
87 1 27.086015378536104 40.79881967279261 5.53312401607192 0 0 0
88 2 30.92660260873239 40.68013750913659 3.872522674670473 0 0 0
89 3 30.93271652632846 40.6498774553732 7.184206816631273 0 0 0
90 1 30.00024691186817 42.35053096696929 5.542780799131211 0 0 0
91 2 33.826418665032925 42.23509021844927 3.8864766817425718 0 0 0
92 3 33.82855162699555 42.210541998499615 7.198198464728871 0 0 0
93 1 32.90421611185077 43.912607227201796 5.553294498608977 0 0 0
94 2 36.71520084070056 43.80007312912889 3.898126854894552 0 0 0
95 3 36.71498213032943 43.78400970880278 7.209865518954932 0 0 0
96 1 35.79815672881654 45.48579043325994 5.560862485368286 0 0 0
97 2 39.59607258566543 45.37468928456114 3.905461321116408 0 0 0
98 3 39.594097582261234 45.368564369279454 7.2172072467758825 0 0 0
99 1 38.68410068048914 47.0686542881309 5.563573835117109 0 0 0
100 2 42.47268383169573 46.956809829797905 3.9076759757793953 0 0 0
101 3 42.46926599013086 46.96145155006925 7.219421619464099 0 0 0
102 1 41.565173842279194 48.65850836634694 5.560660584591756 0 0 0
103 2 45.348683487084614 48.54328434861848 3.9040347918427156 0 0 0
104 3 45.34442399234456 48.55955846958188 7.215753578901713 0 0 0
105 1 44.44498412553504 50.252073127427785 5.551381056944188 0 0 0
106 2 48.22770388883681 50.13062422103623 3.893378962993272 0 0 0
107 3 48.22349529907432 50.15950170740553 7.205019389786297 0 0 0
108 1 47.3272733369717 51.84586444417982 5.534619947150294 0 0 0
109 2 51.11346127850257 51.715566555270115 3.874510671777881 0 0 0
110 3 51.11005678727746 51.75756395131568 7.185982377056361 0 0 0
111 1 20.01470635579551 1.1267444830219027 5.509393577895083 0 1 0
112 2 23.80859256405596 0.9858551026564977 3.8471859184416792 0 1 0
113 3 23.805972407520684 1.0400485001067865 7.158381753955114 0 1 0
114 1 22.91278376681111 2.7112488508266948 5.4759914112886205 0 1 0
115 2 26.718399368695163 2.5596146257942554 3.8132156400727646 0 1 0
116 3 26.71526795693997 2.622817076506406 7.124068155862442 0 1 0
117 2 73.70667381182794 28.048958170890955 3.898137570810555 -1 0 0
118 3 73.75011787379415 28.03138190472634 7.209446451325724 -1 0 0
119 2 76.62682420011362 29.631804106978517 3.872997766349583 -1 0 0
120 3 76.67538342043144 29.61155106115726 7.184234316396654 -1 0 0
121 1 75.7217344245279 31.297568126572678 5.553061985013372 -1 0 0
122 2 19.150532563821663 31.19798568354472 3.847185909050068 0 0 0
123 3 19.198775502155986 31.173158104963235 7.158381744503581 0 0 0
124 1 78.64519299442954 32.86269528892042 5.529108907245712 -1 0 0
125 2 22.08126010665838 32.74959744507164 3.8269051694976715 0 0 0
126 3 22.122896923654594 32.718777915516846 7.13812277031866 0 0 0
127 1 21.16948945349543 34.41314282696859 5.509393570167385 0 0 0
128 2 25.013481233720892 34.29083873806664 3.8176795354070947 0 0 0
129 3 25.043739907829547 34.254159779816234 7.128968443109216 0 0 0
130 1 24.096406552076868 35.95384968169733 5.4991768668724115 0 0 0
131 2 27.941688808820533 35.827392141553815 3.8216621528175927 0 0 0
132 3 27.959118340120483 35.78723253792775 7.133050604895049 0 0 0
133 1 27.02005418860223 37.491590992346865 5.500609289229233 0 0 0
134 2 30.86035414794643 37.365314596875216 3.8365755091594513 0 0 0
135 3 30.8667993062487 37.32590286841736 7.148079239290149 0 0 0
136 1 29.936400358755872 39.033232118947886 5.511660697639668 0 0 0
137 2 33.766206927612544 38.90987487265656 3.8571530011188413 0 0 0
138 3 33.765065116568145 38.875860028088645 7.16876199100893 0 0 0
139 1 32.842546468073365 40.58394334734034 5.527442655772695 0 0 0
140 2 36.65922458631166 40.464683423115524 3.877992935227464 0 0 0
141 3 36.653513002917215 40.4395165624371 7.189671992073291 0 0 0
142 1 35.737708591255895 42.1462971367826 5.543007426466732 0 0 0
143 2 39.54192861547762 42.03113169657503 3.8955914396960085 0 0 0
144 3 39.53347248829454 42.01639844823828 7.207294366172682 0 0 0
145 1 38.62321164586375 43.72038633984863 5.55522845117205 0 0 0
146 2 42.418013793585565 43.608332827102345 3.9084247459734573 0 0 0
147 3 42.407813828814376 43.6043018052717 7.220127241226848 0 0 0
148 1 41.50190543092573 45.30441972261773 5.562780739642778 0 0 0
149 2 45.291322574741294 45.19367678873364 3.915840106637638 0 0 0
150 3 45.28022208019369 45.20031478673852 7.22752643067032 0 0 0
151 1 44.37736239550428 46.895546613517 5.565005020136378 0 0 0
152 2 48.165528364803514 46.78360453584487 3.9170443141462745 0 0 0
153 3 48.15450925169579 46.801234297967014 7.228691982633217 0 0 0
154 1 47.253360226456635 48.49042181172612 5.560958097088882 0 0 0
155 2 51.04417984192892 48.3743003696862 3.9108607350985953 0 0 0
156 3 51.03425601884698 48.40357314621627 7.222431118575197 0 0 0
157 1 50.13361305161479 50.08551771517628 5.549334079159053 0 0 0
158 2 53.9308274689836 49.96227290395654 3.8961914068594035 0 0 0
159 3 53.92263651632972 50.00351301632942 7.207627138566513 0 0 0
160 1 53.02168448470401 51.677387613197986 5.529108915198816 0 0 0
161 2 56.82890272214757 51.544874558161695 3.8729977753931144 0 0 0
162 3 56.82216276364714 51.59705459702622 7.184234325489175 0 0 0
163 1 25.719670463512692 0.953262691442759 5.500660740664454 0 1 0
164 2 29.54023651595792 0.8108657484212203 3.843349574529156 0 1 0
165 3 29.53328866497724 0.8708078347929208 7.154353411191858 0 1 0
166 1 28.631994056083514 2.530447435566016 5.466748498925372 0 1 0
167 2 32.468524931142916 2.379586478080928 3.8119614345230604 0 1 0
168 3 32.458313815236416 2.4419381597871848 7.122780406870735 0 1 0
169 2 70.69803332021057 23.131714491840256 3.894199715168747 -1 0 0
170 3 70.73718574754412 23.113589181352012 7.205559902220517 -1 0 0
171 2 73.61504502044862 24.734959207373514 3.8717098233764893 -1 0 0
172 3 73.66380364043046 24.71447742031691 7.182905998641606 -1 0 0
173 1 72.72515487961108 26.405236351168007 5.553087155310163 -1 0 0
174 2 16.133165357169794 26.32173109404932 3.843349564011447 0 0 0
175 3 16.1885506537935 26.297777065356055 7.154353400605793 0 0 0
176 1 75.64563774492117 27.991067293783463 5.528319634119411 -1 0 0
177 2 19.05854488508674 27.891139308326164 3.8132156289795196 0 0 0
178 3 19.114845519622676 27.86224996382218 7.124068144689197 0 0 0
179 1 18.16676775728786 29.55923987920654 5.500660730622891 0 0 0
180 2 21.989537319275183 29.444531095225578 3.7877341056295886 0 0 0
181 3 22.039514719090988 29.409430328408824 7.098541900025205 0 0 0
182 1 21.092671780255593 31.111081982584437 5.475991401356274 0 0 0
183 2 24.924172774000336 30.98535428902574 3.773640588392107 0 0 0
184 3 24.96141111399275 30.943849711775506 7.084516560136911 0 0 0
185 1 24.019854025962342 32.65048600518343 5.460763718332409 0 0 0
186 2 27.85787755537783 32.51866761080899 3.775151031263397 0 0 0
187 3 27.87911075921131 32.47249344028651 7.0861632593651285 0 0 0
188 1 26.945430653811655 34.183490321578596 5.4592061520721336 0 0 0
189 2 30.784668300799755 34.050396223672166 3.7918829782003463 0 0 0
190 3 30.790653826313168 34.00338899392964 7.103066285850485 0 0 0
191 1 29.865457855474627 35.7171066359269 5.471195008119367 0 0 0
192 2 33.6995267050431 35.586480186267984 3.8190387885043426 0 0 0
193 3 33.69398536249156 35.543661975107845 7.130406555281772 0 0 0
194 1 32.77627112958428 37.257689308284014 5.492421497707788 0 0 0
195 2 36.6003971690412 37.132055742633895 3.8498744209295555 0 0 0
196 3 36.58786502958855 37.097855736338026 7.161401909841613 0 0 0
197 1 35.675866625669876 38.80969968501649 5.51683880215325 0 0 0
198 2 39.48858923856218 38.69039319416853 3.878727134014639 0 0 0
199 3 39.472651084611805 38.66717514255741 7.190343186123211 0 0 0
200 1 38.56454816522896 40.3749830089445 5.539486321342985 0 0 0
201 2 42.367536860562694 40.26221532975848 3.902477755864349 0 0 0
202 3 42.35041077701019 40.25018869896346 7.214120128803832 0 0 0
203 1 41.44458181044288 41.95295168671282 5.5577289917402934 0 0 0
204 2 45.241329520203884 41.84577249836802 3.920043184081189 0 0 0
205 3 45.2243185026001 41.844056896426665 7.231674249459751 0 0 0
206 1 44.31935465562889 43.5412649511378 5.570591692728924 0 0 0
207 2 48.11386861159565 43.437652578062504 3.931086644955818 0 0 0
208 3 48.09792501116696 43.44547288272649 7.242686263140325 0 0 0
209 1 47.19259851841854 45.136643771105035 5.577509323140131 0 0 0
210 2 50.988695292435985 45.03367471227146 3.9351085909249934 0 0 0
211 3 50.97467442798093 45.05094209069347 7.246665511978502 0 0 0
212 1 50.06797993772687 46.73539406767615 5.577603561309803 0 0 0
213 2 53.869132069673014 46.629616647210526 3.931259956222519 0 0 0
214 3 53.85774156094242 46.656785995614605 7.242758623154344 0 0 0
215 1 52.948977865757826 48.33375874072047 5.5697138049690675 0 0 0
216 2 56.75844856383372 48.22176607706651 3.9188143090048153 0 0 0
217 3 56.74989850804414 48.259067918763854 7.230231221628111 0 0 0
218 1 55.83885365339767 49.92816180787472 5.553061992561943 0 0 0
219 2 59.65976270796234 49.80737310925684 3.8981375789141093 0 0 0
220 3 59.65326216996378 49.85378490111041 7.209446459459097 0 0 0
221 1 58.74041571049025 51.51551056906931 5.528319643486869 0 0 0
222 2 62.575584392247315 51.385019732419536 3.8717098326408683 0 0 0
223 3 62.56894283067098 51.43748682747421 7.182906007950314 0 0 0
224 1 31.454567611490027 0.7839177067489002 5.498555358039893 0 1 0
225 2 35.305977325925426 0.6450644952714956 3.84452910305775 0 1 0
226 3 35.29577431324915 0.6985620479230724 7.155656321521206 0 1 0
227 1 34.384004163563986 2.3522511120355327 5.4694010910298605 0 1 0
228 2 38.25193111186661 2.2086964670153146 3.823224281539065 0 1 0
229 3 38.234565865215444 2.257336584150619 7.1343711464608734 0 1 0
230 2 67.672282865208 18.18679584106676 3.890161536848389 -1 0 0
231 3 67.70192026877547 18.175452660651683 7.201703811508836 -1 0 0
232 2 70.59046381091004 19.80535896689241 3.870976062031712 -1 0 0
233 3 70.63127384259889 19.791020056291845 7.182353932089926 -1 0 0
234 1 69.71139179333098 21.48344608424349 5.547984577915177 -1 0 0
235 2 13.106706850512301 21.41135370875209 3.84452909359366 0 0 0
236 3 13.158138598083665 21.393441001019585 7.155656312009893 0 0 0
237 1 72.63271436171686 23.088443531583014 5.526654254814234 -1 0 0
238 2 16.027573149941052 23.001398571258317 3.811961423543549 0 0 0
239 3 16.08667684928946 22.979065816276954 7.122780395820582 0 0 0
240 1 15.152662120099377 24.677345755087124 5.49855534757236 0 0 0
241 2 18.953161672837783 24.574030090420827 3.7770680630359807 0 0 0
242 3 19.014107867363347 24.54617716314199 7.087616198073785 0 0 0
243 1 18.07648801270905 26.248501291608427 5.4667484875321986 0 0 0
244 2 21.88466787074038 26.13005749780514 3.7462089627278647 0 0 0
245 3 21.93972909576573 26.09562521430497 7.056629077901151 0 0 0
246 1 21.002554065653406 27.802558925623263 5.437029232210398 0 0 0
247 2 24.821408593531242 27.672357368702404 3.726735981812475 0 0 0
248 3 24.863123499535153 27.630929645298654 7.037196414642962 0 0 0
249 1 23.93042126219482 29.342538960095712 5.416535034961586 0 0 0
250 2 27.760211436638567 29.205286906757795 3.7244471328771316 0 0 0
251 3 27.783788152799616 29.157813557973967 7.035045414692519 0 0 0
252 1 26.85831227186835 30.8735001264807 5.411151507287432 0 0 0
253 2 30.695610129047715 30.734110213513716 3.7411051141567024 0 0 0
254 3 30.700418356215756 30.683463652833833 7.051880922384811 0 0 0
255 1 29.78297871960746 32.40184939947641 5.422886444961889 0 0 0
256 2 33.62143194270532 32.26468202554437 3.773325627144479 0 0 0
257 3 33.610862420758366 32.21557067796013 7.08432150388555 0 0 0
258 1 32.70040507285458 33.9343959548382 5.448790319309464 0 0 0
259 2 36.53339475693028 33.80299339186309 3.8138342218006502 0 0 0
260 3 36.51310105833381 33.76067203521091 7.125075970997692 0 0 0
261 1 35.60740005077924 35.477141847166706 5.482309586329202 0 0 0
262 2 39.43079125604778 35.35398870900891 3.8546631252123187 0 0 0
263 3 39.406345241893966 35.322260555846555 7.166105752646494 0 0 0
264 1 38.50284306823983 37.03390553441559 5.516372709872175 0 0 0
265 2 42.31619053117914 36.920200786761264 3.890161538899944 0 0 0
266 3 42.29154834572988 36.900205632738455 7.201703813530269 0 0 0
267 1 41.38802734771269 38.60565451664548 5.546113456940776 0 0 0
268 2 45.19374912684193 38.50113528142326 3.917847880152813 0 0 0
269 3 45.171058167097044 38.491875535855684 7.229410754055408 0 0 0
270 1 44.26588987458835 40.19077509993327 5.569398038729727 0 0 0
271 2 48.06774888044112 40.09386724651282 3.9374215853165797 0 0 0
272 3 48.04795071452301 40.0936486852681 7.248962489741845 0 0 0
273 1 47.14005099174668 41.78610026476261 5.585760386108482 0 0 0
274 2 50.94195039906326 41.6940805015634 3.9492603386649185 0 0 0
275 3 50.92547146398632 41.70173310382944 7.260761402012128 0 0 0
276 1 50.014146139435354 43.38774347298445 5.59507787443763 0 0 0
277 2 53.81958557598199 43.297065800954016 3.9534616001141756 0 0 0
278 3 53.80673193113713 43.3123660130238 7.2649232801850765 0 0 0
279 1 52.89156653073494 44.99165411868432 5.596907392797486 0 0 0
280 2 56.70365725508411 44.89834706477432 3.949668667919869 0 0 0
281 3 56.694604978777434 44.92170767781223 7.2610983240573885 0 0 0
282 1 55.7754867540291 46.59386111227422 5.590502751187572 0 0 0
283 2 59.59710935790526 46.494166457571616 3.937617158206742 0 0 0
284 3 59.591556283566916 46.52577909839179 7.249020219585852 0 0 0
285 1 58.668821301784966 48.190716989877 5.575524609117643 0 0 0
286 2 62.50271802945358 48.08189493544827 3.9181474549673676 0 0 0
287 3 62.49933915415295 48.12068160203322 7.229524365530351 0 0 0
288 1 61.57402702654479 49.779213689906115 5.553087163477226 0 0 0
289 2 65.42254089523719 49.660435856681204 3.8941997228499914 0 0 0
290 3 65.41866166176229 49.70340550675793 7.20555990992011 0 0 0
291 1 64.49267412468544 51.35755426548245 5.526654263763223 0 0 0
292 2 68.35703403466047 51.23045569352275 3.870976069623873 0 0 0
293 3 68.34904688113339 51.2729676718807 7.182353939702425 0 0 0
294 1 37.223911827021915 0.6160209239333017 5.501982519836247 0 1 0
295 2 41.10311000384932 0.4846979633780319 3.85466313089751 0 1 0
296 3 41.08785562512997 0.5217329073534046 7.166105758383599 0 1 0
297 1 40.16828440000209 2.176537613948362 5.485628975253672 0 1 0
298 2 44.058158268195065 2.0468576288930125 3.849874426891095 0 1 0
299 3 44.034806264714746 2.074810781592947 7.161401915853627 0 1 0
300 2 67.55305191533836 14.85292508549195 3.878727133587509 -1 0 0
301 3 67.58112841401545 14.85073126668249 7.190343185727238 -1 0 0
302 1 66.67671870894618 16.540256080937205 5.546113455499199 -1 0 0
303 2 10.069259017695476 16.47107280770164 3.8546631243709615 0 0 0
304 3 10.108959410599624 16.46576601672008 7.166105751838982 0 0 0
305 1 69.60127760711359 18.158295661594416 5.527712180741003 -1 0 0
306 2 12.987874964837822 18.07826690516634 3.8232242730240467 0 0 0
307 3 13.038681166275337 18.068985592766783 7.134371137905377 0 0 0
308 1 12.122587128950675 19.764895494474562 5.501982511139904 0 0 0
309 2 15.909059968569997 19.67065404747305 3.7855889115773667 0 0 0
310 3 15.96809894116612 19.656435533856982 7.09635018562607 0 0 0
311 1 15.046160411539722 21.356212579284215 5.469401080578733 0 0 0
312 2 18.835014587541153 21.246250368906164 3.745415880934081 0 0 0
313 3 18.89652432261013 21.226021053529923 7.055814766585374 0 0 0
314 1 17.97094895489895 22.930154364403393 5.432799324619845 0 0 0
315 2 21.76714823962161 22.805429176547438 3.708901742640711 0 0 0
316 3 21.823340063983157 22.778196615384925 7.0191002294789735 0 0 0
317 1 20.89765091995459 24.486940537761306 5.397786252356559 0 0 0
318 2 24.705499185437528 24.350672355456407 3.6834967001214096 0 0 0
319 3 24.748510246998155 24.315867016183812 6.99370145501173 0 0 0
320 1 23.826455416365057 26.029028419377738 5.371689316219809 0 0 0
321 2 27.648238756934507 25.88575208214457 3.675841665100971 0 0 0
322 3 27.672326937710253 25.84359986009373 6.9861624794319965 0 0 0
323 1 26.756654879362923 27.56056999603972 5.361386167116216 0 0 0
324 2 30.591241000509545 27.415043026592034 3.6895666566069267 0 0 0
325 3 30.594401790533144 27.36706637893628 7.000005787879786 0 0 0
326 1 29.68610652634606 29.08687674184397 5.37079427485036 0 0 0
327 2 33.52834796278357 28.943630256414774 3.72348807911388 0 0 0
328 3 33.51295181543887 28.893266083380617 7.034075029683179 0 0 0
329 1 32.61113416704011 30.61427159712352 5.3990230882992 0 0 0
330 2 36.453465888972545 30.477529181423844 3.771190804679219 0 0 0
331 3 36.42543041158452 30.430029246149523 7.082029139029294 0 0 0
332 1 35.5276650183997 32.149573526568716 5.440167049640183 0 0 0
333 2 39.36335419875109 32.022796106977665 3.8232242743159888 0 0 0
334 3 39.329913243797805 31.98343730230265 7.134371139165315 0 0 0
335 1 38.43302793874832 33.69848616298038 5.485628968348759 0 0 0
336 2 42.258816842205704 33.5837003931678 3.8709760644558324 0 0 0
337 3 42.22599396441504 33.555527324480074 7.182353934489151 0 0 0
338 1 41.32701127929344 35.26389242671746 5.527712182602892 0 0 0
339 2 45.14354882590837 35.16131190787412 3.909450213217486 0 0 0
340 3 45.11484335363941 35.14441193796426 7.220928903212263 0 0 0
341 1 44.21170329538747 36.84532119411328 5.562011148765626 0 0 0
342 2 48.02213089630152 36.75361203277881 3.9374131351879145 0 0 0
343 3 47.99874428750208 36.74620704625311 7.248895927404499 0 0 0
344 1 47.090392739179784 38.43992281333474 5.587317171915967 0 0 0
345 2 50.89871572674374 38.35649445399972 3.955770239326 0 0 0
346 3 50.88057476773479 38.356568472773716 7.267213978219638 0 0 0
347 1 49.966677909337584 40.043641415974584 5.604102217654866 0 0 0
348 2 53.77668213295038 39.96498450531827 3.96578786233244 0 0 0
349 3 53.76337746833033 39.97135238022873 7.277190081647744 0 0 0
350 1 52.84396016912629 41.65209688505787 5.613016835003923 0 0 0
351 2 56.65887069225301 41.574110070768754 3.968149102812399 0 0 0
352 3 56.65008987171248 41.586630039004866 7.279522758468603 0 0 0
353 1 55.72532052722263 43.261007165374366 5.61418753179777 0 0 0
354 2 59.547928969183914 43.17940308907776 3.9628991159052287 0 0 0
355 3 59.54342413452559 43.19849629415126 7.27427224381224 0 0 0
356 1 58.61363094376918 44.866346818929856 5.607345039657629 0 0 0
357 2 62.44650260949989 44.777273131502405 3.9501452701663697 0 0 0
358 3 62.44557555679572 44.80298427432408 7.261540483419103 0 0 0
359 1 61.51149812185951 46.464528038598104 5.592588928151679 0 0 0
360 2 65.35700283361925 46.365453127658526 3.9311986951527733 0 0 0
361 3 65.35790021312478 46.39648742467941 7.242629485669419 0 0 0
362 1 64.42101353944823 48.05284555555567 5.571516398395362 0 0 0
363 2 68.28091969327069 47.943398756719546 3.909450216335042 0 0 0
364 3 68.28063662694902 47.976708408120615 7.2209289063530315 0 0 0
365 1 67.34330397217632 49.63011343432861 5.547984585119692 0 0 0
366 2 71.21784129287595 49.51251842615058 3.8901615425328946 0 0 0
367 3 71.2128460750956 49.54385675990621 7.201703817194286 0 0 0
368 1 70.27802580121414 51.197326965211936 5.527712187448657 0 0 0
369 2 74.16467353385829 51.07619677366211 3.8787271381263135 0 0 0
370 3 74.15253518925101 51.10160864390067 7.19034319026774 0 0 0
371 1 43.0219347455742 0.44836625430426436 5.516372715169987 0 1 0
372 2 46.91488479385071 0.3295977521070253 3.877992939572007 0 1 0
373 3 46.89594544600383 0.347127557280828 7.189671996447465 0 1 0
374 1 45.97330581326266 2.008702594573627 5.516838807585243 0 1 0
375 2 49.864505013695386 1.8976762464276142 3.886476685893039 0 1 0
376 3 49.84217915197092 1.9081031561551982 7.198198468903078 0 1 0
377 2 64.51463348512915 9.896260310873352 3.8981268562159688 -1 0 0
378 3 64.52865416954963 9.904102613211366 7.2098655202962725 -1 0 0
379 2 7.029050898403498 11.515478305391449 3.8779929365305033 0 0 0
380 3 7.0537018297640675 11.523115360754382 7.189671993402682 0 0 0
381 1 66.55617487680766 13.210387135143518 5.5394863216084556 -1 0 0
382 2 9.944604839453502 13.13084610817557 3.849874422101495 0 0 0
383 3 9.98048898226696 13.1370929619478 7.16140191104807 0 0 0
384 1 9.078382463821466 14.827487691580203 5.516372709801237 0 0 0
385 2 12.861158611849175 14.737351493408367 3.813834222730568 0 0 0
386 3 12.907956829900275 14.740937315343656 7.125075971969333 0 0 0
387 1 12.001847936699418 16.434735702748267 5.485628967883739 0 0 0
388 2 15.781059531281851 16.330863169774787 3.771190805191667 0 0 0
389 3 15.836213419495794 16.330333704227304 7.082029139584457 0 0 0
390 1 14.92572446039755 18.0279358467055 5.4478934399203744 0 0 0
391 2 18.70651765305975 17.908954165176617 3.725607595771003 0 0 0
392 3 18.76465408206995 17.902741702484153 7.036043403331877 0 0 0
393 1 17.85102358395327 19.604566658664197 5.4059782291993494 0 0 0
394 2 21.63889903506013 19.47153352753042 3.6831938022515964 0 0 0
395 3 21.69255213327827 19.45820026848604 6.993387465771114 0 0 0
396 1 20.778447418785 21.164466689249394 5.365364188664336 0 0 0
397 2 24.578320802431957 21.020700990649168 3.6513120519834534 0 0 0
398 3 24.619727671952212 20.999301660080747 6.961490902300446 0 0 0
399 1 23.70835511890544 22.70976942506134 5.333288137183351 0 0 0
400 2 27.523649702365088 22.55977612985058 3.6368319109582763 0 0 0
401 3 27.54665904575253 22.529949520012238 6.947105899418342 0 0 0
402 1 26.640651515245025 24.24403612708632 5.316939237689107 0 0 0
403 2 30.472192411447722 24.092317369197808 3.6445322697956883 0 0 0
404 3 30.47370575784622 24.054326806161725 6.954848414777033 0 0 0
405 1 29.574299183519873 25.771446618692355 5.321479636139086 0 0 0
406 2 33.41900216917877 25.622274303572144 3.6755132602376555 0 0 0
407 3 33.399949718244066 25.57767986203889 6.985824723426745 0 0 0
408 1 32.5066416793937 27.2970438068265 5.348231998796774 0 0 0
409 2 36.35740371815486 27.154962633292364 3.7256075959589805 0 0 0
410 3 36.322955350451366 27.107721240877193 7.03604340348665 0 0 0
411 1 35.43349562920525 28.827459276031977 5.393264642326506 0 0 0
412 2 39.28180941353287 28.696782114396044 3.7855889134175307 0 0 0
413 3 39.239976331408634 28.652762121555938 7.096350187444042 0 0 0
414 1 38.35084147368496 30.36973474491462 5.447893440871521 0 0 0
415 2 42.19047610080978 30.253341276212517 3.844529096381476 0 0 0
416 3 42.149247366177036 30.217756430385222 7.155656314784584 0 0 0
417 1 41.256661321193434 31.92884306193407 5.501982513411349 0 0 0
418 2 45.085740474453374 31.827364706160953 3.89419971824347 0 0 0
419 3 45.05046728135216 31.802520364797566 7.205559905282956 0 0 0
420 1 44.15161892425907 33.50595553575876 5.5479845808282535 0 0 0
421 2 47.972048255671794 33.41809844420453 3.9311986924439926 0 0 0
422 3 47.94472307536658 33.40335844764593 7.2426294829494084 0 0 0
423 1 47.03830629955635 35.098935240702765 5.582736929859962 0 0 0
424 2 50.85392567626439 35.02204583312318 3.9560382960620117 0 0 0
425 3 50.8341899656577 35.0153381193556 7.267445125765347 0 0 0
426 1 49.92011417616753 36.703732683089136 5.606515520024003 0 0 0
427 2 53.735061846181594 36.63427159860227 3.9708649305835073 0 0 0
428 3 53.721683995068354 36.63367552337619 7.282220951318581 0 0 0
429 1 52.80045601240761 38.31566825256526 5.620947485135037 0 0 0
430 2 56.618332956034244 38.249509095413245 3.9776055917988122 0 0 0
431 3 56.61021522251966 38.25407909243505 7.288925574190376 0 0 0
432 1 55.68244725122244 39.930107183815544 5.627402857478541 0 0 0
433 2 59.50618518708486 39.86282899142392 3.977225321451922 0 0 0
434 3 59.50271409560574 39.87256848576958 7.288536907510766 0 0 0
435 1 58.56892212871471 41.542734385861735 5.626448197263199 0 0 0
436 2 62.4009860489964 41.469964658298416 3.969905866918048 0 0 0
437 3 62.40174580990073 41.48520699248394 7.281251103021234 0 0 0
438 1 61.46249023231754 43.149578012631636 5.618099154526365 0 0 0
439 2 65.30512330894396 43.06770037784112 3.95603829730463 0 0 0
440 3 65.30918211458037 43.08814586033921 7.267445127012734 0 0 0
441 1 64.36546240502287 44.74728981493642 5.602834718737143 0 0 0
442 2 68.22060101740578 44.6543234957243 3.9374131366082774 0 0 0
443 3 68.22588141618833 44.678279384944034 7.248895928837921 0 0 0
444 1 67.27952117791416 46.33367898378031 5.5827369322372995 0 0 0