LAMMPS data file via write_data, version 7 Jan 2022, timestep = 322

6 atoms
6 atom types

0 3.32 xlo xhi
0 2.875204340564336 ylo yhi
0 100 zlo zhi
1.66 0 0 xy xz yz

Masses

1 95.94
2 78.95999999999999
3 78.95999999999999
4 183.84
5 78.95999999999999
6 78.95999999999999

Atoms # atomic

1 1 1.6600000000000004 0.9585003529215084 4.5629079839676 0 0 0
2 2 3.3200000000000007 1.9169018033521383 2.9075634903294922 -1 0 0
3 3 3.3200000000000007 1.916901795212837 6.2184929149638375 -1 0 0
4 4 3.3200000000000007 1.9169012466371136 11.004307556872659 -1 0 0
5 5 1.6600000000000008 0.9584998040346634 9.359461067464832 0 0 0
6 6 1.6600000000000006 0.9584997965444636 12.648697509280355 0 0 0

Velocities

1 -1.9966239767720605e-14 -6.630158724172014e-07 1.063610080814158e-05
2 1.4940782615698387e-14 -6.708805053512948e-07 1.0743734336644536e-05
3 6.020405566647644e-15 -6.516663293495308e-07 1.035763152605451e-05
4 3.86073741906235e-15 6.442578263801107e-07 -1.0309249851468808e-05
5 -3.0323786893563096e-15 6.323356986560926e-07 -1.0073393718565774e-05
6 -1.3108890068940886e-15 6.500286540461391e-07 -1.0396575427931507e-05
